LAMMPS data file via write_data, version 7 Aug 2019, timestep = 100098

100 atoms
2 atom types

0.0000000000000000e+00 4.3679023236814940e+00 xlo xhi
0.0000000000000000e+00 4.3679023236814940e+00 ylo yhi
0.0000000000000000e+00 4.3679023236814940e+00 zlo zhi

Masses

1 1
2 1

Pair Coeffs # lj/cut

1 1 1
2 0.5 0.88

Atoms # atomic

1 1 3.5087376893141902e+00 8.9081983944105225e-01 7.3173970463946203e-01 -1 0 2
2 1 4.2381013238415308e+00 4.2336125078783216e-01 4.1878463863801532e+00 1 0 -1
3 1 2.3236401628768850e+00 6.4971032554518626e-01 3.5890265864565150e+00 1 1 0
4 1 3.9394497652343903e+00 4.2900964333946607e+00 3.4663309526476227e+00 -1 0 0
5 1 2.9926138800735940e+00 2.6403531147348649e+00 1.0561169289419967e+00 0 0 0
6 1 1.7752699956054927e+00 8.4406818162454123e-01 2.5445440278291243e-01 -2 2 1
7 1 1.3002060845308632e+00 1.8374784553282104e+00 2.2947444371592951e-01 2 -1 1
8 1 9.0614503150021042e-01 1.8161141993400769e+00 1.5990803431903149e+00 0 0 -2
9 2 6.2366851801600809e-01 2.2010814502007667e+00 8.8668579538554360e-01 2 -2 -2
10 2 2.8952110604298507e+00 3.2901442095390754e-01 2.0417221484825809e+00 -2 -1 1
11 1 3.5426722040844352e+00 2.3097233650148556e+00 2.0662894076607432e+00 -1 -3 1
12 1 4.0683527850189796e+00 2.0308592341237492e+00 6.1648247564746561e-01 0 1 -1
13 1 1.2335811803176875e+00 7.2164401556892432e-01 1.2141521998464111e+00 -3 1 2
14 1 1.6609099147822866e+00 3.0083105883487895e+00 3.8038863831460592e+00 -1 0 0
15 1 2.7698287660191161e+00 1.1166063350832383e+00 2.1449716278787725e+00 -1 1 3
16 1 3.2219979168356910e-01 2.8461942324065106e+00 1.4660622628123166e+00 1 -2 -1
17 1 2.0967819031044361e+00 3.1797351025350600e+00 9.8464425745147455e-01 -2 -2 0
18 1 1.4931388911506089e+00 2.6082630926445218e+00 1.6219196265546834e+00 1 1 -1
19 2 2.6576326671249633e+00 2.6172064865506456e-01 2.9524201487185642e+00 0 2 -1
20 2 1.1724059710775352e+00 3.7974527368838116e+00 4.2055412209270688e+00 0 -1 0
21 1 1.3559210598921045e+00 2.7506635040726994e+00 2.7727256362520261e+00 0 0 1
22 1 2.1249016890329053e+00 3.2995178164848388e-01 1.8693978430713545e+00 2 2 0
23 1 3.3996751862513559e+00 3.1961837707500131e+00 2.6387696640881702e+00 -1 -1 -2
24 1 1.8212926529856641e+00 3.7512588301901872e+00 2.1682063593685168e+00 1 1 1
25 1 1.0870667053648855e-01 7.7122819625934036e-01 3.3551619387852458e+00 -1 -1 0
26 1 3.4360778883746257e-01 3.8320007886172585e+00 7.3620378138911355e-02 1 0 0
27 1 4.4429403316490740e-01 3.7535995494752141e+00 1.0609363858755458e+00 0 0 0
28 1 1.6376934603192164e-01 3.3818022886389587e-01 1.4174726561180961e+00 0 0 0
29 2 1.1986125475617182e+00 1.8449625231719256e+00 2.5369454028232283e+00 0 -2 -1
30 2 5.5690257099067830e-01 2.1385525830080701e+00 7.4435509600393038e-02 -1 0 2
31 1 2.9044933017543211e+00 3.6872198982606323e+00 7.3939824461748871e-01 1 0 1
32 1 4.2712030763979136e+00 3.3236701745171979e+00 3.6573475962408959e+00 0 -1 0
33 1 1.5233130864701820e+00 4.0305208224398221e+00 1.1709336041831966e+00 -1 0 -1
34 1 3.5016204604999994e+00 1.9010939964378343e-01 1.4998649596102360e+00 -3 -1 1
35 1 2.4884003294665389e+00 2.9317414127518360e+00 3.2289565893077983e+00 1 1 -1
36 1 9.4383421393166522e-01 7.6503868375544370e-01 2.7968089245568524e+00 3 0 0
37 1 3.7022591971483537e-01 1.3822051390637822e+00 2.3665657434358720e+00 1 1 1
38 1 4.0022534732426296e+00 1.5786792751236984e+00 3.1090267085396337e+00 2 -1 0
39 2 3.0871737423596044e+00 1.8443212350149443e+00 6.8183145357911579e-01 0 -1 0
40 2 2.3497442066917973e+00 1.2547217476869337e+00 2.9392202646305687e+00 0 0 -1
41 1 4.2256717013225629e+00 3.9112411291960787e+00 1.8748581869969088e+00 -2 -1 1
42 1 4.3237648428005295e+00 2.1881130969778320e+00 3.9015767069101699e+00 0 0 -1
43 1 2.9317595729889234e-02 1.2681539815793650e+00 1.2961006093116931e+00 1 2 1
44 1 1.4390581088783888e-01 2.8280362986837626e+00 3.2677746860724388e-01 -1 1 1
45 1 3.4202124876571984e+00 2.4328763402790941e+00 3.4879263285044351e+00 0 0 0
46 1 4.2497235105713022e-01 9.6478170348788506e-01 4.7903492074396414e-01 0 -1 2
47 1 1.4745801609693372e+00 3.7434088127991152e+00 3.1246063362669405e+00 1 -1 -1
48 1 3.0882794506584057e+00 1.7681071701044613e+00 2.7915869030243816e+00 0 -1 0
49 2 3.4297932556177209e+00 3.2365650485423325e+00 1.7267601069435694e+00 0 0 1
50 2 2.2440068988536985e-01 1.3502906255235236e+00 4.0622078369680077e+00 -1 0 -1
51 1 2.5571231768781946e+00 2.9779906499960807e+00 2.3003643651988845e+00 1 0 0
52 1 2.6217012575565786e+00 1.5038844142453494e+00 3.6402693847994279e+00 0 1 1
53 1 2.5227750995424505e+00 3.0847919682643625e+00 1.0121568703182149e-02 0 0 -1
54 1 3.3072339506632735e+00 1.5911089287055729e+00 1.4711983732593465e+00 -3 1 -1
55 1 2.1678131345389664e+00 2.1042646335275177e+00 2.7904570209266861e+00 -1 -1 0
56 1 3.7381651318817406e+00 8.4764645063892352e-01 2.1652728466457245e+00 0 -1 3
57 1 6.1063342125928288e-01 1.9120457523202365e+00 3.2559211474092242e+00 0 1 0
58 1 3.4329432253256611e+00 4.2454539341964512e+00 2.4112324051418419e+00 0 1 -2
59 2 1.5408562816787297e+00 2.4608264826043178e+00 6.7011770954161987e-01 0 0 -1
60 2 1.5986385803110073e+00 2.9078450830540614e-01 3.8480872031854489e+00 0 2 1
61 1 3.5550022204622320e+00 1.3518995915110981e+00 4.0452190198887950e+00 -1 0 1
62 1 3.4594381163408436e+00 7.6381768765295011e-01 3.0724901372507429e+00 -1 1 -1
63 1 3.2297182723446070e+00 3.4997590147947251e+00 3.5398408245673747e+00 0 0 0
64 1 1.1384247188187882e+00 6.3224438454542689e-02 4.5855341335941380e-01 1 -1 0
65 1 1.8476775170330806e+00 2.6554553292701844e-01 2.7524865136461827e+00 0 2 0
66 1 3.9359176018993667e+00 3.3385596449833130e+00 1.0238372235511375e+00 0 1 2
67 1 6.0929347489519392e-01 4.1031739605140984e+00 3.4856708257432816e+00 0 1 0
68 1 1.0575237335984680e+00 2.6942490685193049e-01 2.0290162553976674e+00 0 1 -2
69 2 4.2570697927948835e+00 2.0513954225277433e+00 1.7266911222345076e+00 0 -3 -2
70 2 5.4207990334498746e-01 2.8887183590480339e+00 3.1275518446918786e+00 2 0 -1
71 1 1.4857720444032652e+00 1.3622290157642596e+00 3.2127746032624680e+00 -2 1 0
72 1 2.6373368650759943e+00 2.7133208498013806e-01 1.0897139108332758e+00 0 2 1
73 1 1.0190825344743182e-01 1.8941757984487911e-01 2.5416830422375623e+00 -1 -1 0
74 1 2.0635179402755042e+00 2.2421957108647907e+00 4.0624806439648031e+00 1 1 0
75 1 2.7867770908923544e+00 3.7072008742025000e+00 1.7289915953799595e+00 0 -1 -1
76 1 3.0191747786550631e+00 4.8038675746584117e-02 4.0514776507668708e+00 -1 2 0
77 1 4.3368129737568273e+00 3.6541529933688413e+00 2.7854391877838016e+00 -1 0 0
78 1 8.4325064610161449e-01 6.8862887189973043e-01 3.9742735416856130e+00 0 -2 2
79 2 1.8132751621675196e+00 1.5049041935871112e+00 4.0156887233916549e+00 3 -1 -2
80 2 3.7060780630862240e+00 3.9303792860044737e+00 4.1635319453038022e+00 1 1 0
81 1 7.8837585279525313e-01 3.6226593572243080e+00 2.1022949831185094e+00 1 -1 2
82 1 3.5189269221207748e+00 3.0159837966928555e+00 3.1303553893768203e-02 -2 -1 2
83 1 2.1837128814787770e+00 4.0404945171453983e+00 3.6216591907576028e+00 2 -1 -1
84 1 1.0640905068797284e+00 3.1967339492763025e+00 6.0949545327509358e-01 -1 2 -1
85 1 8.0410246429891274e-01 2.7139533120615842e+00 3.8885202861252788e+00 1 -1 -1
86 1 2.6192684427494668e+00 1.1901626212658483e+00 2.0051894505359313e-01 1 0 -1
87 1 3.8329614389404552e+00 4.2124186469030995e+00 5.7282858851381568e-01 0 -1 0
88 1 4.1632458567050374e+00 2.4534924217021343e+00 2.9209148366450215e+00 0 -1 -1
89 2 8.6755775820256453e-01 4.2463636233914048e+00 2.7342135335958662e+00 0 -1 -5
90 2 1.6216266200579796e+00 1.7923549926893667e+00 1.1662791271198447e+00 1 -1 -2
91 1 2.2191332799142360e+00 2.0389433796568794e+00 6.3043860485301262e-01 1 0 0
92 1 2.3227714679433391e+00 2.0730734817237262e+00 1.6804924583182621e+00 -1 1 0
93 1 3.0038186609982880e+00 2.1516711938491535e+00 4.3488462657588753e+00 1 -1 1
94 1 2.1802653865778585e+00 1.1170111656312571e+00 1.2725113698567736e+00 1 0 -1
95 1 1.9917581932844213e+00 3.8497322612405349e+00 2.0012696144149955e-01 0 0 1
96 1 2.6282078877935056e+00 3.8358194507357384e+00 2.7348639376625403e+00 0 1 -2
97 1 1.6988126067415097e+00 1.1447992632386601e+00 2.1025658547303712e+00 0 0 -1
98 1 5.9424543180024703e-01 2.4610078404312854e+00 2.3690466749151486e+00 0 1 2
99 2 1.1760214742356343e+00 3.3061350135985510e+00 1.3782527416294610e+00 -1 -3 0
100 2 3.8484331733139552e+00 1.5904545839006397e+00 2.3280523481871271e+00 -2 0 2

Velocities

1 -3.9386142867168253e-02 9.3996561342548268e-01 1.7851269534174430e-01
2 -1.2540971200519642e+00 9.7755557737817467e-01 -1.1426157628800011e+00
3 -3.2311876546771190e-01 2.4091037955242860e+00 -2.8738612100266492e+00
4 9.0786628020676861e-03 1.0025841996555791e+00 -1.1681647625561569e+00
5 5.9203893682717434e-01 1.7184500774699483e+00 9.7086961073735534e-01
6 -1.5505924844327983e+00 -1.7052876997299156e+00 -1.6927971259441168e+00
7 9.8995916351331828e-02 -1.5913090523843123e-02 -1.3531898202279418e+00
8 -7.3333084298748574e-01 6.2907669900101260e-01 3.0790237394286475e+00
9 1.5068438599548470e-01 2.4719439727947408e+00 -2.0895629801563365e+00
10 -2.3946195508948951e+00 -7.3380146990813611e-01 1.1766130866682780e+00
11 2.9701565063427626e-01 5.0022252448239557e-01 -6.0121101039117705e-02
12 -2.2380307123377419e+00 -3.0633251714097844e+00 2.2503809746169940e+00
13 -2.0290492509188174e-01 -4.3793033192811237e-01 2.8923680290784043e-01
14 -7.4540238483394139e-01 2.2133879100371345e+00 1.9289590533492018e+00
15 -5.2266466900553632e-01 -5.2301048610675582e-01 -1.3365497825321912e-01
16 -1.8481559167490236e+00 2.7849354359998584e+00 -1.3266749011343932e+00
17 1.7616294602720806e+00 2.1130087420708041e+00 2.4858865450317245e+00
18 1.4696631009606449e+00 -1.4192158879261932e-01 -2.0250836128054956e+00
19 -6.7140399413286656e-01 2.6264228262917220e+00 -2.6382376340560585e+00
20 -1.3149719199040608e+00 -6.2460477563113448e-01 9.5816144721112240e-01
21 8.6625942335530359e-01 -6.7233160376797541e-01 -2.4357002214104178e-02
22 6.2637231359394585e-02 -5.4739631559295132e-01 -1.3931950353134805e+00
23 -1.4877947984080493e+00 7.2282776084413369e-01 2.6404812991443777e-01
24 1.3121149667375160e+00 1.1035367466666426e+00 1.3860144669942527e+00
25 1.2373880378181505e+00 -1.8024889240936697e+00 -8.7425620504950585e-01
26 8.9003664058916965e-01 -1.0796499387585339e+00 7.7469695350405920e-01
27 -2.8835057273580103e+00 -2.6352921610594454e-01 -1.1148189645227957e+00
28 3.4280884848414384e-01 -1.1107303142684997e+00 4.1627210627348549e-01
29 1.7982245915507988e+00 1.4974475066313049e+00 5.0209817484595032e-01
30 -1.5206540327295339e+00 2.9383413381273392e-02 -1.1866472801412451e+00
31 3.5225066633338292e-01 -1.8613836257886300e+00 3.1435136501604872e+00
32 -4.1124232842454356e-01 -1.6754207813019855e+00 6.6024482619019442e-01
33 1.8133043720389679e+00 3.0600703896923948e-01 -1.8752672616662893e+00
34 -3.8021414406562754e-01 -4.0959441097025123e-01 -3.2161909096657362e+00
35 -2.2328193684777817e-01 -3.9736731513446411e-01 8.0764469218410240e-01
36 -1.9880277020657542e+00 1.3532546592674113e+00 -9.8405682474167921e-01
37 -7.6609308536684495e-01 6.8896187432202527e-01 -7.6238754786746499e-01
38 4.4439068868926485e-01 3.8639477172739733e-01 1.0187982263123481e+00
39 -3.2864233965418216e-01 1.1347278880128163e-01 -5.2195789709398532e-01
40 -1.6722931312052889e+00 1.8698850672829936e+00 7.8331491510146489e-01
41 8.2557480567215469e-01 6.3256091022897754e-01 1.9636632131932590e+00
42 1.8410798184576092e+00 -1.5371729952658630e-01 8.1289285628190566e-01
43 1.3715797288008760e+00 1.0041384572728786e-01 2.6205860100809603e-01
44 2.0633436332456938e+00 9.4984407540245064e-01 -1.0777299297707426e+00
45 7.1105575949512737e-02 -1.3515528365563338e+00 -2.0388478440666180e+00
46 -2.2106406264220513e+00 -1.0005125559179184e+00 -4.2047485847017912e-01
47 -1.1917619879674242e+00 -1.0320450032936708e+00 -2.4803510927764112e+00
48 -1.1083079284383703e+00 1.6620484287825386e+00 -1.9945983833609686e+00
49 1.2798744815844185e+00 -1.2189661543544283e+00 2.0323272672298218e+00
50 -8.8848448218061837e-01 -3.0929299615565741e-02 1.8454685450134209e+00
51 -4.1568460611608365e-01 -8.7614597331867161e-01 -3.3403262360078617e-01
52 -9.3559545159808766e-01 -1.9336327891158440e+00 2.6891932246630357e-01
53 -1.5074394707198879e+00 1.0619901474089701e+00 1.1536120380452122e+00
54 -5.6640333383166741e-01 2.6182769131616306e+00 -6.6480038255104423e-01
55 -1.3456692989750518e+00 1.0135215882715676e-01 -8.2803601602927310e-02
56 -2.9688451230162466e-01 1.3245996788653478e+00 1.1483847384145301e-02
57 -2.7913852715327425e-01 -9.7820027147637401e-01 1.0352040462338594e+00
58 5.9705669472830729e-02 -3.6207304321639322e+00 -2.3315095193373714e+00
59 6.1949932864263546e-01 -1.3093366534679685e+00 -2.3876452765820151e+00
60 -5.4997314331472336e-01 8.5012196664756912e-01 -1.1015233631726600e+00
61 1.6530066049519396e+00 -2.9902266580305292e-01 7.4801851473548686e-01
62 4.3292537961284749e-01 -1.3287714810906042e+00 -4.7768101192019308e-01
63 -1.3343442885689669e+00 -1.6430675045685397e+00 1.2653004909302847e+00
64 1.3852721246931037e+00 -2.1654362419877047e+00 -1.3749428729705373e+00
65 7.1185412014540894e-01 -2.8923130376174604e+00 7.2846946518340860e-01
66 -3.5384918279251081e+00 5.6594767146116509e-01 -1.2479610290683528e-01
67 5.2579075349363491e-01 -3.2252302860328741e-01 -1.2762839769952266e+00
68 8.9787163787399860e-01 1.8838923372562419e+00 -6.7148798258253539e-01
69 1.1913904936205431e+00 -1.2006015465770801e+00 7.1729252300231661e-01
70 2.5295946303064074e+00 7.1297645688929367e-01 4.8607082953685108e+00
71 -9.4836941870476943e-01 -3.7275263880262108e+00 -3.8905525222924719e-01
72 -4.4191554898117119e-01 1.4488058865426034e+00 -4.6665994235268554e-01
73 4.6648876810345161e+00 -5.8706649078822545e-02 4.2297103207172143e-01
74 2.2812999399693012e+00 2.2318095953259096e+00 7.8388328331896873e-01
75 1.5062874618573541e+00 -1.0783701300545456e+00 1.1955434220581109e+00
76 1.5007520607241416e+00 -6.4479335866546617e-01 7.1405585951932704e-01
77 3.8923172518157273e-01 -2.3913836291612367e+00 1.3992315567457998e+00
78 6.5474718462882786e-01 2.1998788306606381e+00 -9.9326152414677804e-01
79 -8.8449713538825214e-01 -6.1523104175263443e-01 -3.7712577593496244e-01
80 -2.2940484848491969e+00 4.1515329142571661e-01 -3.0482815057615666e+00
81 5.2282628377741969e-01 1.1837613050148126e+00 1.5135053717592770e-01
82 2.1177087327878802e-01 -2.8755238795561753e+00 9.1854710891723909e-02
83 -2.0868665355588273e-01 1.8824582568617083e+00 3.4925595826431716e-01
84 2.7929093138915795e-01 2.0234617921332503e-02 2.8843558035187583e-01
85 5.7386947636219088e-01 4.4240051900692917e-01 7.7641070885988361e-01
86 -3.1626369124996817e-01 1.6614157866703525e+00 2.6810973492291073e+00
87 3.4704325878846182e-01 4.3173846490176987e-01 2.0675548610453722e+00
88 4.9060774195034285e-01 -6.9908888930673685e-01 1.0266485296933319e+00
89 1.6508292734714658e+00 3.4625466314454276e+00 -2.4963930333387174e+00
90 -5.4047757757565185e-01 -2.0751249807987375e+00 1.3869094358443246e+00
91 -5.4882513158383639e-01 6.9717013305113734e-02 -5.2687248769924221e-02
92 -1.6541461553493906e+00 -1.1675259025098411e-01 1.3582419699261274e-02
93 5.1370577543122886e-01 -8.9007903507301767e-01 -8.3187197274830560e-01
94 1.9448580369399806e+00 -1.3798231930847897e+00 6.0959915949417610e-02
95 -9.4984816966821761e-01 1.1510562134088771e+00 7.2408148175333975e-01
96 1.6672203344095855e+00 -1.4924348464833652e+00 9.6777940467725287e-01
97 8.0650335972946596e-01 -1.1641796376605297e-01 2.0688079365546652e-01
98 4.5829284262208120e-01 -1.9048580873550396e+00 -1.0503206588139575e+00
99 7.5376727784455455e-01 2.0783765162009984e+00 2.4350929943775840e-01
100 -1.7194557794111438e+00 8.8809997590543011e-01 6.7055929102692913e-01
