ITEM: TIMESTEP
396000
ITEM: NUMBER OF ATOMS
100
ITEM: BOX BOUNDS pp pp pp
0.0000000000000000e+00 4.3679023236814940e+00
0.0000000000000000e+00 4.3679023236814940e+00
0.0000000000000000e+00 4.3679023236814940e+00
ITEM: ATOMS id type x y z 
1 1 3.51689 1.51701 2.22362 
2 1 0.945841 1.63811 1.40153 
3 1 2.86995 0.327143 4.20497 
4 1 2.85334 0.365764 1.18279 
5 1 0.975105 2.4545 0.742946 
6 1 2.17882 1.03751 3.12138 
7 1 1.69994 3.26718 1.29307 
8 1 0.592605 3.3991 1.13315 
9 2 2.08111 0.600138 3.90151 
10 2 1.11413 3.99792 4.06105 
11 1 2.26701 4.10189 1.98076 
12 1 2.23348 1.93886 0.366721 
13 1 4.22138 2.417 2.633 
14 1 0.762367 2.67031 3.14038 
15 1 4.00059 1.45607 4.04413 
16 1 0.10937 2.43697 1.49415 
17 1 0.239401 1.6909 3.21983 
18 1 1.78292 2.42106 3.14054 
19 2 4.18908 3.65245 0.622009 
20 2 3.95985 3.22259 2.34006 
21 1 1.29915 0.382794 0.132779 
22 1 2.82935 1.37003 3.96785 
23 1 0.494316 3.15127 2.17716 
24 1 2.81692 3.64855 1.19002 
25 1 4.32995 2.80001 0.454757 
26 1 2.95527 3.66615 3.86759 
27 1 1.13617 1.41868 0.405112 
28 1 0.407956 4.29611 3.65694 
29 2 2.34774 1.83018 3.39057 
30 2 3.43497 2.93851 4.01233 
31 1 4.14919 2.53336 3.76327 
32 1 1.6496 0.447417 2.44144 
33 1 1.56197 2.54568 4.15901 
34 1 1.98929 1.57821 2.21263 
35 1 1.81524 0.741208 1.44883 
36 1 0.826689 0.613609 1.07955 
37 1 1.32307 3.44699 0.349454 
38 1 0.274267 1.51797 2.18518 
39 2 1.1058 1.93011 3.4816 
40 2 3.53864 4.19381 1.4506 
41 1 3.38631 3.2767 0.435157 
42 1 1.83265 2.26041 1.42187 
43 1 0.603574 0.559485 2.12748 
44 1 0.486399 4.09726 0.312412 
45 1 1.50522 3.22279 2.37932 
46 1 2.43608 3.36638 2.96298 
47 1 2.02193 4.07457 4.15866 
48 1 4.28737 4.04916 2.26684 
49 2 2.67814 2.1572 1.8321 
50 2 3.66701 2.66527 1.01272 
51 1 1.41156 0.252397 3.44999 
52 1 3.45887 1.89252 3.24107 
53 1 4.32353 0.65799 2.93586 
54 1 3.42827 2.9924 3.06476 
55 1 3.93512 3.37806 1.4253 
56 1 1.1139 2.17123 2.28145 
57 1 0.0346904 3.41242 3.10189 
58 1 2.37205 3.16706 0.261199 
59 2 1.75444 1.50397 0.986149 
60 2 3.01234 0.0714383 2.53547 
61 1 2.65769 0.767471 2.15203 
62 1 0.0343349 0.707286 0.360308 
63 1 1.18463 4.12445 1.64443 
64 1 4.18943 0.997004 1.3742 
65 1 3.25193 3.70014 2.2179 
66 1 1.96656 4.20717 0.846804 
67 1 2.47581 3.0269 1.94883 
68 1 3.43659 2.60552 1.9391 
69 2 1.80187 2.6646 0.644073 
70 2 1.02357 2.71551 1.5881 
71 1 3.2374 0.792668 3.08218 
72 1 3.57149 4.1059 3.10498 
73 1 1.14686 1.24247 2.90986 
74 1 0.598445 2.07709 4.15778 
75 1 0.0461657 4.32671 1.24674 
76 1 0.596051 3.23332 4.02573 
77 1 3.60323 4.30022 0.527044 
78 1 4.01047 3.64187 4.07372 
79 2 2.76611 1.45313 2.65408 
80 2 1.90592 2.44959 2.28516 
81 1 2.67706 2.53287 3.79592 
82 1 2.1911 0.8827 0.428966 
83 1 3.876 0.389676 3.90041 
84 1 2.46232 4.40384 3.21885 
85 1 2.77554 2.57748 1.0268 
86 1 3.56731 1.84312 1.20815 
87 1 3.37151 1.07534 0.522518 
88 1 1.68728 1.45737 3.90777 
89 2 1.78295 3.99152 2.77099 
90 2 2.75802 3.93328 0.339203 
91 1 0.675094 0.991472 3.89418 
92 1 3.65102 0.44297 2.06705 
93 1 1.49004 3.45756 3.44488 
94 1 0.869466 4.0347 2.7184 
95 1 2.7066 2.30501 2.70078 
96 1 0.0869111 1.75268 0.652593 
97 1 2.59083 1.46363 1.29064 
98 1 3.37409 2.21265 0.192985 
99 2 3.30728 1.02913 1.52919 
100 2 1.25138 1.1188 2.03127 
ITEM: TIMESTEP
397000
ITEM: NUMBER OF ATOMS
100
ITEM: BOX BOUNDS pp pp pp
0.0000000000000000e+00 4.3679023236814940e+00
0.0000000000000000e+00 4.3679023236814940e+00
0.0000000000000000e+00 4.3679023236814940e+00
ITEM: ATOMS id type x y z 
1 1 3.493 1.55015 2.21005 
2 1 0.946041 1.59905 1.39319 
3 1 2.88462 0.314087 4.27159 
4 1 2.8737 0.359383 1.18701 
5 1 0.949663 2.439 0.731675 
6 1 2.17244 1.0575 3.11993 
7 1 1.73504 3.30317 1.29075 
8 1 0.592902 3.3641 1.09055 
9 2 2.10037 0.624858 3.93916 
10 2 1.1096 3.99062 4.04274 
11 1 2.262 4.08542 2.025 
12 1 2.20981 2.00382 0.341348 
13 1 4.2191 2.44698 2.61939 
14 1 0.745854 2.62704 3.17589 
15 1 4.00441 1.4837 4.1132 
16 1 0.105952 2.4349 1.50096 
17 1 0.181619 1.67637 3.20572 
18 1 1.72098 2.25306 3.11405 
19 2 4.20818 3.5943 0.63628 
20 2 3.93156 3.21305 2.33993 
21 1 1.2927 0.376006 0.0939977 
22 1 2.84271 1.34766 4.02545 
23 1 0.476293 3.20433 2.12391 
24 1 2.88342 3.65759 1.23868 
25 1 4.30577 2.73656 0.439405 
26 1 2.95199 3.68585 3.91312 
27 1 1.12365 1.39081 0.394722 
28 1 0.413387 4.28754 3.62163 
29 2 2.4036 1.83501 3.4584 
30 2 3.41378 2.95529 4.00263 
31 1 4.14088 2.55553 3.73989 
32 1 1.59842 0.411431 2.41551 
33 1 1.52406 2.59446 4.12868 
34 1 1.96953 1.56109 2.20475 
35 1 1.87447 0.747843 1.44969 
36 1 0.924544 0.543543 1.05131 
37 1 1.34593 3.47933 0.345509 
38 1 0.208904 1.52952 2.17265 
39 2 1.01903 1.81288 3.436 
40 2 3.55901 4.2138 1.48658 
41 1 3.41317 3.25295 0.442143 
42 1 1.80889 2.25421 1.41964 
43 1 0.558697 0.526803 2.04594 
44 1 0.463674 4.09088 0.292024 
45 1 1.50906 3.23171 2.3606 
46 1 2.44244 3.37162 2.971 
47 1 2.01548 4.10724 4.13487 
48 1 4.27399 4.05719 2.27035 
49 2 2.69492 2.11146 1.85879 
50 2 3.69071 2.66398 1.04265 
51 1 1.41176 0.267106 3.43146 
52 1 3.43619 1.88461 3.27663 
53 1 4.34705 0.649719 2.96146 
54 1 3.4156 3.03186 3.0874 
55 1 3.91186 3.39297 1.44337 
56 1 1.04103 2.19052 2.24018 
57 1 0.0124275 3.41667 3.10738 
58 1 2.36776 3.21938 0.316068 
59 2 1.76511 1.48046 0.991285 
60 2 2.97854 0.105711 2.55834 
61 1 2.6858 0.79255 2.15485 
62 1 0.144209 0.714692 0.350046 
63 1 1.17847 4.07815 1.68974 
64 1 4.21832 0.949628 1.33038 
65 1 3.24149 3.71364 2.21625 
66 1 1.99489 4.24974 0.826805 
67 1 2.46545 3.01475 1.96037 
68 1 3.42999 2.60802 1.94149 
69 2 1.76998 2.69766 0.644147 
70 2 1.07163 2.79918 1.5899 
71 1 3.24514 0.810297 3.07822 
72 1 3.58838 4.1182 3.12159 
73 1 1.10435 1.23878 2.80854 
74 1 0.616042 2.06827 4.12528 
75 1 0.0843332 4.29935 1.271 
76 1 0.613136 3.23336 4.0268 
77 1 3.6448 4.29512 0.542951 
78 1 4.02425 3.66359 4.07503 
79 2 2.77207 1.47327 2.66228 
80 2 1.89721 2.45926 2.26787 
81 1 2.60228 2.61657 3.79711 
82 1 2.15613 0.914915 0.416454 
83 1 3.84534 0.425447 3.92697 
84 1 2.46126 4.4171 3.23154 
85 1 2.81187 2.53362 1.05253 
86 1 3.60617 1.82748 1.21922 
87 1 3.42078 0.995695 0.541988 
88 1 1.68234 1.4877 3.90742 
89 2 1.7666 3.9942 2.78059 
90 2 2.78288 3.98071 0.421941 
91 1 0.683091 1.01031 3.82876 
92 1 3.6852 0.498229 2.10197 
93 1 1.48288 3.45746 3.44804 
94 1 0.875099 4.03625 2.70183 
95 1 2.67993 2.31588 2.7166 
96 1 0.12823 1.71984 0.659662 
97 1 2.60192 1.47258 1.27948 
98 1 3.34991 2.2155 0.176462 
99 2 3.34144 1.02533 1.4878 
100 2 1.254 1.05066 1.96922 
ITEM: TIMESTEP
398000
ITEM: NUMBER OF ATOMS
100
ITEM: BOX BOUNDS pp pp pp
0.0000000000000000e+00 4.3679023236814940e+00
0.0000000000000000e+00 4.3679023236814940e+00
0.0000000000000000e+00 4.3679023236814940e+00
ITEM: ATOMS id type x y z 
1 1 3.42962 1.58305 2.20713 
2 1 0.844537 1.55113 1.41247 
3 1 2.83739 0.306057 4.23321 
4 1 2.87831 0.361782 1.20886 
5 1 0.975457 2.43876 0.756176 
6 1 2.16169 1.02478 3.15274 
7 1 1.72551 3.26552 1.29352 
8 1 0.573472 3.38027 1.12808 
9 2 2.04818 0.644647 3.95913 
10 2 1.11439 3.99211 4.02793 
11 1 2.31702 4.07557 2.04471 
12 1 2.23756 1.94783 0.376684 
13 1 4.19716 2.43216 2.59981 
14 1 0.761196 2.66606 3.09006 
15 1 3.98886 1.47603 4.07066 
16 1 0.116759 2.39334 1.47871 
17 1 0.203465 1.69484 3.22373 
18 1 1.73472 2.34721 3.14154 
19 2 4.1696 3.64655 0.618725 
20 2 4.00708 3.23441 2.36493 
21 1 1.28849 0.380679 0.0987863 
22 1 2.81531 1.34257 3.99374 
23 1 0.477374 3.14402 2.15051 
24 1 2.86476 3.66665 1.23507 
25 1 4.36081 2.7966 0.412555 
26 1 2.97668 3.68335 3.85266 
27 1 1.11403 1.39973 0.413907 
28 1 0.373815 4.32771 3.67529 
29 2 2.36365 1.83402 3.44232 
30 2 3.4697 2.95886 3.99053 
31 1 4.18015 2.58252 3.73599 
32 1 1.61406 0.387397 2.43861 
33 1 1.59683 2.59726 4.17165 
34 1 1.97135 1.57262 2.25151 
35 1 1.87443 0.667023 1.45327 
36 1 0.898045 0.569819 1.06387 
37 1 1.3366 3.46466 0.353238 
38 1 0.146144 1.47976 2.20821 
39 2 1.03699 1.84827 3.39798 
40 2 3.55191 4.21957 1.54338 
41 1 3.39564 3.26214 0.442548 
42 1 1.80676 2.20376 1.43668 
43 1 0.578727 0.51552 2.08667 
44 1 0.485053 4.08866 0.315167 
45 1 1.50584 3.21369 2.37394 
46 1 2.43332 3.40671 2.92953 
47 1 1.99543 4.05067 4.081 
48 1 4.27932 4.04825 2.27758 
49 2 2.71027 2.16365 1.81214 
50 2 3.70004 2.66658 1.00891 
51 1 1.39534 0.278724 3.45047 
52 1 3.45081 1.88369 3.26302 
53 1 4.39278 0.657918 2.97401 
54 1 3.42708 2.98345 3.06959 
55 1 3.93365 3.40957 1.40958 
56 1 1.03765 2.16002 2.24803 
57 1 0.0440962 3.43705 3.13851 
58 1 2.36612 3.21439 0.251373 
59 2 1.7519 1.44996 1.04426 
60 2 2.99347 0.0816667 2.511 
61 1 2.63775 0.779914 2.1807 
62 1 0.122122 0.694668 0.337406 
63 1 1.18713 4.0847 1.6752 
64 1 4.21813 1.00709 1.32493 
65 1 3.28765 3.67016 2.22647 
66 1 2.02524 4.21115 0.797474 
67 1 2.45639 2.99821 1.96475 
68 1 3.44742 2.61052 1.89709 
69 2 1.81465 2.67231 0.669867 
70 2 1.08125 2.74868 1.56571 
71 1 3.23561 0.824981 3.07771 
72 1 3.60776 4.15193 3.11235 
73 1 1.06838 1.19842 2.83464 
74 1 0.658489 2.11197 4.12733 
75 1 0.0293728 4.3253 1.25968 
76 1 0.609717 3.2389 4.02188 
77 1 3.62803 4.31733 0.541127 
78 1 4.00154 3.67741 4.09505 
79 2 2.75679 1.46313 2.72311 
80 2 1.87835 2.44075 2.3031 
81 1 2.65936 2.59521 3.78626 
82 1 2.15028 0.914513 0.445224 
83 1 3.83445 0.429085 3.9144 
84 1 2.47226 4.41162 3.20516 
85 1 2.80125 2.58502 1.02673 
86 1 3.5827 1.82057 1.16182 
87 1 3.40927 1.0081 0.50168 
88 1 1.68668 1.51279 3.91389 
89 2 1.77828 3.99465 2.80681 
90 2 2.78926 3.98807 0.386516 
91 1 0.673455 1.03184 3.84309 
92 1 3.68355 0.510398 2.14589 
93 1 1.4641 3.43588 3.42731 
94 1 0.852153 4.02803 2.75744 
95 1 2.68625 2.31935 2.70126 
96 1 0.104915 1.7383 0.598222 
97 1 2.57768 1.4578 1.31348 
98 1 3.36703 2.23658 0.177235 
99 2 3.34947 1.03515 1.4847 
100 2 1.29398 1.08494 1.96298 
ITEM: TIMESTEP
399000
ITEM: NUMBER OF ATOMS
100
ITEM: BOX BOUNDS pp pp pp
0.0000000000000000e+00 4.3679023236814940e+00
0.0000000000000000e+00 4.3679023236814940e+00
0.0000000000000000e+00 4.3679023236814940e+00
ITEM: ATOMS id type x y z 
1 1 3.49619 1.51789 2.21363 
2 1 0.937503 1.61105 1.40614 
3 1 2.83054 0.365519 4.15698 
4 1 2.85188 0.360742 1.17964 
5 1 0.965007 2.45827 0.750391 
6 1 2.23555 1.01147 3.145 
7 1 1.75893 3.30193 1.2861 
8 1 0.582565 3.37455 1.14103 
9 2 2.02185 0.657619 3.92769 
10 2 1.11054 3.99509 4.05219 
11 1 2.27726 4.06407 2.06867 
12 1 2.25488 1.98363 0.360415 
13 1 4.18295 2.39256 2.59301 
14 1 0.722383 2.6494 3.18167 
15 1 3.98901 1.45886 4.09831 
16 1 0.0867206 2.38431 1.52414 
17 1 0.193335 1.68068 3.22293 
18 1 1.73177 2.34584 3.14866 
19 2 4.17258 3.64382 0.634068 
20 2 3.99961 3.20982 2.34042 
21 1 1.31029 0.399685 0.112938 
22 1 2.85791 1.43798 4.01312 
23 1 0.492051 3.10019 2.19484 
24 1 2.79931 3.66552 1.21683 
25 1 4.33507 2.78943 0.453382 
26 1 2.99241 3.69177 3.88671 
27 1 1.11297 1.37829 0.397199 
28 1 0.416075 4.33366 3.6443 
29 2 2.37953 1.85479 3.40694 
30 2 3.41442 2.9256 4.00342 
31 1 4.13035 2.57353 3.70816 
32 1 1.63945 0.437957 2.45574 
33 1 1.56655 2.60249 4.18615 
34 1 1.98609 1.58122 2.25633 
35 1 1.83725 0.727193 1.43427 
36 1 0.871891 0.567454 1.07177 
37 1 1.33353 3.46874 0.366017 
38 1 0.231364 1.49705 2.18088 
39 2 1.07338 1.8526 3.46369 
40 2 3.49862 4.14358 1.41859 
41 1 3.39106 3.27748 0.445846 
42 1 1.81891 2.2635 1.45245 
43 1 0.577547 0.496675 2.08449 
44 1 0.462632 4.10039 0.312973 
45 1 1.51091 3.21441 2.36622 
46 1 2.40386 3.33012 3.02312 
47 1 2.01195 4.07161 4.11791 
48 1 4.30041 4.02537 2.23328 
49 2 2.65811 2.12278 1.82686 
50 2 3.6535 2.67244 1.00976 
51 1 1.41532 0.233619 3.4446 
52 1 3.45789 1.87394 3.24117 
53 1 4.31721 0.665538 2.92433 
54 1 3.41793 3.0332 3.05671 
55 1 3.93907 3.37227 1.41132 
56 1 1.0665 2.19428 2.2937 
57 1 0.0528286 3.46415 3.1142 
58 1 2.36283 3.23847 0.311482 
59 2 1.75002 1.48074 0.988828 
60 2 3.02648 0.0961425 2.5015 
61 1 2.65667 0.769588 2.12846 
62 1 0.133826 0.755566 0.33855 
63 1 1.18771 4.08762 1.68717 
64 1 4.21104 0.988667 1.33923 
65 1 3.28599 3.70589 2.16289 
66 1 1.96731 4.23008 0.808582 
67 1 2.46374 3.02012 2.00571 
68 1 3.42022 2.60455 1.94184 
69 2 1.8004 2.68132 0.679453 
70 2 1.06297 2.74511 1.58656 
71 1 3.27683 0.799762 3.05092 
72 1 3.6305 4.14744 3.07127 
73 1 1.12813 1.22173 2.88093 
74 1 0.618527 2.10179 4.16205 
75 1 -0.0246571 4.31212 1.21288 
76 1 0.584901 3.21748 4.04048 
77 1 3.60798 4.3043 0.490428 
78 1 4.01866 3.67095 4.0666 
79 2 2.80888 1.45694 2.68789 
80 2 1.91038 2.43332 2.29867 
81 1 2.64654 2.59388 3.8301 
82 1 2.20568 0.898079 0.425833 
83 1 3.86604 0.396771 3.91375 
84 1 2.45869 4.37973 3.14661 
85 1 2.77739 2.57729 1.06824 
86 1 3.58852 1.83865 1.22484 
87 1 3.39581 1.0206 0.534977 
88 1 1.73264 1.49271 3.91297 
89 2 1.78179 3.96036 2.78935 
90 2 2.73641 4.03386 0.379475 
91 1 0.72004 1.00428 3.8314 
92 1 3.64507 0.441204 2.03652 
93 1 1.45461 3.42536 3.46703 
94 1 0.886638 4.02733 2.72159 
95 1 2.68893 2.29607 2.70249 
96 1 0.120374 1.75197 0.648158 
97 1 2.58772 1.47045 1.27073 
98 1 3.39681 2.22268 0.187748 
99 2 3.33604 1.03301 1.47391 
100 2 1.23424 1.08509 2.02221 
ITEM: TIMESTEP
400000
ITEM: NUMBER OF ATOMS
100
ITEM: BOX BOUNDS pp pp pp
0.0000000000000000e+00 4.3679023236814940e+00
0.0000000000000000e+00 4.3679023236814940e+00
0.0000000000000000e+00 4.3679023236814940e+00
ITEM: ATOMS id type x y z 
1 1 3.51853 1.5167 2.2228 
2 1 0.942002 1.60318 1.38904 
3 1 2.88019 0.330117 4.21841 
4 1 2.85799 0.364649 1.19099 
5 1 0.970823 2.46015 0.714127 
6 1 2.17749 1.0467 3.10012 
7 1 1.75051 3.3016 1.31738 
8 1 0.616953 3.38518 1.12372 
9 2 2.09051 0.626427 3.92502 
10 2 1.0943 4.01055 3.9982 
11 1 2.28624 4.0768 2.04267 
12 1 2.20728 1.97646 0.397978 
13 1 4.19577 2.43279 2.62297 
14 1 0.773622 2.61816 3.16973 
15 1 4.00068 1.49479 4.16186 
16 1 0.142206 2.40672 1.50697 
17 1 0.195923 1.695 3.24018 
18 1 1.74606 2.2088 3.14365 
19 2 4.21745 3.64193 0.663003 
20 2 3.96093 3.22726 2.32848 
21 1 1.31227 0.400624 0.0967877 
22 1 2.83777 1.38382 4.04633 
23 1 0.492002 3.12381 2.16676 
24 1 2.8237 3.65468 1.19963 
25 1 4.32318 2.79972 0.451268 
26 1 2.9542 3.68146 3.86981 
27 1 1.11461 1.40435 0.389185 
28 1 0.384723 4.35654 3.59722 
29 2 2.47314 1.81389 3.39588 
30 2 3.39278 2.94989 3.98569 
31 1 4.12364 2.54836 3.74083 
32 1 1.64999 0.431751 2.41685 
33 1 1.56597 2.58547 4.1564 
34 1 1.93782 1.54914 2.20734 
35 1 1.84944 0.697928 1.42524 
36 1 0.894523 0.58089 1.07948 
37 1 1.36155 3.47395 0.348865 
38 1 0.23984 1.52311 2.19443 
39 2 1.04974 1.81766 3.52273 
40 2 3.52465 4.15675 1.44545 
41 1 3.4029 3.27439 0.4391 
42 1 1.81486 2.23801 1.4105 
43 1 0.578133 0.513537 2.10896 
44 1 0.496589 4.11805 0.292373 
45 1 1.50278 3.22019 2.39003 
46 1 2.42946 3.36966 2.96968 
47 1 2.00842 4.07574 4.09488 
48 1 4.30402 4.02846 2.26626 
49 2 2.6628 2.11977 1.8412 
50 2 3.68083 2.65208 1.01957 
51 1 1.40977 0.304441 3.43096 
52 1 3.44288 1.84993 3.29517 
53 1 4.26708 0.730671 2.9162 
54 1 3.42497 3.02965 3.0597 
55 1 3.93605 3.37908 1.45293 
56 1 1.06691 2.20974 2.24886 
57 1 0.0617406 3.41522 3.11828 
58 1 2.36303 3.19662 0.264111 
59 2 1.75142 1.46752 0.989859 
60 2 2.98903 0.0930289 2.52716 
61 1 2.6342 0.753203 2.1132 
62 1 0.113076 0.725446 0.35942 
63 1 1.17342 4.10801 1.71059 
64 1 4.22703 0.959512 1.37053 
65 1 3.26536 3.70783 2.20322 
66 1 1.96781 4.22288 0.78347 
67 1 2.47553 2.99839 1.98352 
68 1 3.44019 2.58513 1.93269 
69 2 1.80256 2.71375 0.66126 
70 2 1.0685 2.74499 1.55258 
71 1 3.20137 0.799894 3.04742 
72 1 3.5927 4.16608 3.11064 
73 1 1.12209 1.27914 2.84495 
74 1 0.591875 2.11689 4.17441 
75 1 0.057385 4.30016 1.25373 
76 1 0.608687 3.22414 4.05294 
77 1 3.60508 4.28496 0.548532 
78 1 4.00008 3.71116 4.07185 
79 2 2.7267 1.46159 2.60078 
80 2 1.91158 2.45093 2.30178 
81 1 2.61006 2.59506 3.7579 
82 1 2.17842 0.906681 0.418395 
83 1 3.86012 0.476454 3.91413 
84 1 2.46326 4.39084 3.20475 
85 1 2.79457 2.57205 1.06419 
86 1 3.60999 1.83215 1.20816 
87 1 3.40752 1.03896 0.575075 
88 1 1.74101 1.43047 3.93622 
89 2 1.77661 3.98163 2.78848 
90 2 2.7535 3.96451 0.369358 
91 1 0.673651 1.02314 3.85753 
92 1 3.63529 0.444385 2.05419 
93 1 1.46254 3.40058 3.44658 
94 1 0.890714 4.01076 2.73244 
95 1 2.70128 2.31519 2.70314 
96 1 0.129749 1.75012 0.708189 
97 1 2.58772 1.45738 1.26374 
98 1 3.31775 2.2626 0.17692 
99 2 3.35223 1.04078 1.50757 
100 2 1.22867 1.07532 1.97791 
ITEM: TIMESTEP
401000
ITEM: NUMBER OF ATOMS
100
ITEM: BOX BOUNDS pp pp pp
0.0000000000000000e+00 4.3679023236814940e+00
0.0000000000000000e+00 4.3679023236814940e+00
0.0000000000000000e+00 4.3679023236814940e+00
ITEM: ATOMS id type x y z 
1 1 3.57763 1.49862 2.2646 
2 1 0.964206 1.63736 1.38417 
3 1 2.84839 0.322476 4.16384 
4 1 2.85201 0.361989 1.17209 
5 1 0.987667 2.4599 0.716137 
6 1 2.19339 1.01175 3.1209 
7 1 1.72849 3.3017 1.30946 
8 1 0.587245 3.41173 1.10096 
9 2 2.04385 0.631305 3.94685 
10 2 1.09933 4.0066 4.01647 
11 1 2.30521 4.09885 2.03502 
12 1 2.24498 1.96716 0.394877 
13 1 4.18543 2.39235 2.60047 
14 1 0.767055 2.63707 3.1914 
15 1 4.01748 1.48007 4.1158 
16 1 0.11359 2.39179 1.48442 
17 1 0.215052 1.68842 3.22937 
18 1 1.76174 2.30102 3.13548 
19 2 4.20677 3.65917 0.626824 
20 2 3.94127 3.19161 2.33562 
21 1 1.28705 0.391105 0.124121 
22 1 2.84414 1.36666 4.00051 
23 1 0.477644 3.11644 2.14749 
24 1 2.82379 3.66067 1.18935 
25 1 4.3494 2.81989 0.450114 
26 1 2.93641 3.67375 3.87049 
27 1 1.14851 1.37508 0.401886 
28 1 0.402567 4.33441 3.5879 
29 2 2.42603 1.80701 3.40536 
30 2 3.44021 2.96848 4.01074 
31 1 4.12798 2.55896 3.74261 
32 1 1.62494 0.441459 2.4067 
33 1 1.55519 2.56214 4.14668 
34 1 2.00595 1.59595 2.25815 
35 1 1.79574 0.755924 1.43531 
36 1 0.842459 0.571323 1.05709 
37 1 1.32535 3.47135 0.343271 
38 1 0.283879 1.51094 2.21293 
39 2 1.0714 1.89423 3.48838 
40 2 3.52218 4.17232 1.38095 
41 1 3.39527 3.27526 0.466872 
42 1 1.82628 2.27584 1.43951 
43 1 0.601846 0.514466 2.08175 
44 1 0.459027 4.11804 0.273563 
45 1 1.50229 3.20458 2.34552 
46 1 2.36951 3.32296 2.98448 
47 1 2.01212 4.08164 4.13474 
48 1 4.32124 4.00145 2.26321 
49 2 2.65326 2.13702 1.80555 
50 2 3.69291 2.62369 1.01333 
51 1 1.41508 0.28863 3.44147 
52 1 3.43706 1.86818 3.28526 
53 1 4.28906 0.668866 2.89661 
54 1 3.39748 3.04393 3.09569 
55 1 3.90988 3.35675 1.4253 
56 1 1.08416 2.17942 2.28748 
57 1 0.0483305 3.40863 3.12112 
58 1 2.34826 3.22507 0.274742 
59 2 1.76671 1.5383 0.998872 
60 2 3.00075 0.101376 2.54454 
61 1 2.6557 0.772335 2.13831 
62 1 0.0522008 0.700778 0.376075 
63 1 1.22543 4.12943 1.6708 
64 1 4.16626 0.985395 1.40033 
65 1 3.26646 3.70731 2.18637 
66 1 1.97524 4.22863 0.818879 
67 1 2.49045 3.02491 1.94523 
68 1 3.41905 2.57169 1.92307 
69 2 1.8285 2.69121 0.685984 
70 2 1.04797 2.73704 1.57858 
71 1 3.23192 0.786342 3.08624 
72 1 3.58473 4.1239 3.11028 
73 1 1.14412 1.24819 2.90578 
74 1 0.587542 2.07143 4.16379 
75 1 0.0130009 4.29803 1.22165 
76 1 0.582238 3.24017 4.04501 
77 1 3.60853 4.33134 0.510738 
78 1 3.97491 3.70333 4.06805 
79 2 2.81964 1.45362 2.67551 
80 2 1.92662 2.47194 2.2914 
81 1 2.66081 2.57102 3.83081 
82 1 2.19416 0.896727 0.444219 
83 1 3.87498 0.439627 3.90582 
84 1 2.4241 4.37376 3.18086 
85 1 2.79702 2.59379 1.03482 
86 1 3.56706 1.80257 1.20495 
87 1 3.36039 1.01425 0.5279 
88 1 1.75383 1.47917 3.92438 
89 2 1.77207 3.98627 2.78563 
90 2 2.76329 4.00291 0.371452 
91 1 0.678807 1.00546 3.87164 
92 1 3.6366 0.416818 2.05528 
93 1 1.45351 3.44951 3.44193 
94 1 0.89505 4.01425 2.71829 
95 1 2.69583 2.3187 2.67922 
96 1 0.142365 1.71585 0.686717 
97 1 2.60098 1.43888 1.2841 
98 1 3.4052 2.2256 0.207556 
99 2 3.3197 1.00063 1.5125 
100 2 1.22621 1.17071 2.03704 
ITEM: TIMESTEP
402000
ITEM: NUMBER OF ATOMS
100
ITEM: BOX BOUNDS pp pp pp
0.0000000000000000e+00 4.3679023236814940e+00
0.0000000000000000e+00 4.3679023236814940e+00
0.0000000000000000e+00 4.3679023236814940e+00
ITEM: ATOMS id type x y z 
1 1 3.56693 1.50882 2.23785 
2 1 0.93844 1.60878 1.4014 
3 1 2.87003 0.328257 4.20174 
4 1 2.79418 0.381884 1.15085 
5 1 1.0248 2.43504 0.754698 
6 1 2.18422 1.01609 3.11305 
7 1 1.72189 3.26398 1.27223 
8 1 0.592071 3.37831 1.07197 
9 2 2.02373 0.599845 3.90401 
10 2 1.1334 4.01551 3.97705 
11 1 2.26551 4.04664 2.08388 
12 1 2.26152 1.96882 0.350002 
13 1 4.20591 2.4292 2.63165 
14 1 0.753883 2.63347 3.1641 
15 1 4.02831 1.52605 4.12446 
16 1 0.134268 2.43239 1.51118 
17 1 0.221966 1.70319 3.27577 
18 1 1.74923 2.29852 3.1341 
19 2 4.19863 3.63504 0.61181 
20 2 3.9882 3.20061 2.33207 
21 1 1.31992 0.384943 0.0771196 
22 1 2.86417 1.36806 4.0268 
23 1 0.501974 3.18699 2.13713 
24 1 2.78064 3.70936 1.21778 
25 1 4.33841 2.7832 0.411696 
26 1 2.9702 3.66883 3.8609 
27 1 1.10943 1.39384 0.3698 
28 1 0.3692 4.30013 3.61625 
29 2 2.43129 1.80263 3.39926 
30 2 3.41648 2.95776 4.0429 
31 1 4.14069 2.57883 3.73834 
32 1 1.59008 0.422538 2.43127 
33 1 1.59077 2.56253 4.14513 
34 1 1.97299 1.5815 2.24621 
35 1 1.76248 0.816264 1.45724 
36 1 0.854632 0.562997 1.03896 
37 1 1.35624 3.47524 0.325005 
38 1 0.257296 1.52994 2.2053 
39 2 1.07982 1.87606 3.531 
40 2 3.51746 4.16763 1.45364 
41 1 3.40852 3.31015 0.516618 
42 1 1.85023 2.2301 1.437 
43 1 0.57615 0.510474 2.07637 
44 1 0.499979 4.12821 0.282469 
45 1 1.51319 3.21391 2.3835 
46 1 2.41796 3.35514 2.96459 
47 1 2.00749 4.05776 4.1292 
48 1 4.26744 4.04698 2.25806 
49 2 2.68171 2.10174 1.80686 
50 2 3.70876 2.64067 1.01433 
51 1 1.39457 0.278046 3.42559 
52 1 3.43738 1.87086 3.26258 
53 1 4.33143 0.660894 2.93723 
54 1 3.42064 3.03345 3.05888 
55 1 3.95655 3.37072 1.43738 
56 1 1.07849 2.18337 2.27389 
57 1 0.0642562 3.43142 3.11013 
58 1 2.39585 3.18547 0.261491 
59 2 1.74882 1.53778 0.95338 
60 2 2.98494 0.0821877 2.53711 
61 1 2.592 0.731178 2.14584 
62 1 0.0594483 0.707971 0.388729 
63 1 1.18458 4.07931 1.69075 
64 1 4.22763 1.01206 1.38568 
65 1 3.26881 3.70417 2.2028 
66 1 1.90656 4.24325 0.839166 
67 1 2.47318 2.99737 1.94526 
68 1 3.4313 2.59584 1.922 
69 2 1.86155 2.66029 0.657708 
70 2 1.09126 2.73776 1.60359 
71 1 3.23962 0.774821 3.07099 
72 1 3.59851 4.15304 3.12215 
73 1 1.14426 1.28181 2.94267 
74 1 0.620005 2.14272 4.17501 
75 1 0.0324901 4.30457 1.2157 
76 1 0.588821 3.23355 4.01942 
77 1 3.62369 4.33288 0.522314 
78 1 3.99053 3.6793 4.06868 
79 2 2.78964 1.42323 2.63655 
80 2 1.90599 2.46602 2.28325 
81 1 2.67479 2.54641 3.76557 
82 1 2.14679 0.90277 0.415155 
83 1 3.86377 0.458393 3.91728 
84 1 2.45579 4.36881 3.21692 
85 1 2.78745 2.58734 1.04446 
86 1 3.5658 1.81972 1.22826 
87 1 3.39185 1.06761 0.539556 
88 1 1.72378 1.46217 3.91575 
89 2 1.76579 3.98075 2.80878 
90 2 2.73933 4.01069 0.36109 
91 1 0.628638 0.933291 3.88024 
92 1 3.5983 0.422584 2.04653 
93 1 1.4768 3.40182 3.43969 
94 1 0.873809 4.01426 2.73588 
95 1 2.68913 2.30102 2.67086 
96 1 0.139349 1.75037 0.674728 
97 1 2.58547 1.45626 1.24015 
98 1 3.39782 2.23814 0.226317 
99 2 3.33659 1.0195 1.47456 
100 2 1.18792 1.15457 2.08931 
ITEM: TIMESTEP
403000
ITEM: NUMBER OF ATOMS
100
ITEM: BOX BOUNDS pp pp pp
0.0000000000000000e+00 4.3679023236814940e+00
0.0000000000000000e+00 4.3679023236814940e+00
0.0000000000000000e+00 4.3679023236814940e+00
ITEM: ATOMS id type x y z 
1 1 3.54277 1.56569 2.28727 
2 1 0.901675 1.59057 1.36624 
3 1 2.83844 0.299431 4.26369 
4 1 2.89103 0.344195 1.23362 
5 1 0.964497 2.4485 0.720722 
6 1 2.15489 1.06774 3.11017 
7 1 1.72166 3.30633 1.26641 
8 1 0.586537 3.38463 1.06398 
9 2 2.0696 0.619494 3.91208 
10 2 1.1254 3.98925 3.96967 
11 1 2.29768 4.11866 2.02368 
12 1 2.20315 1.99132 0.349694 
13 1 4.17922 2.42919 2.61987 
14 1 0.741223 2.58241 3.14636 
15 1 3.97638 1.43366 4.10845 
16 1 0.149327 2.43051 1.47801 
17 1 0.160179 1.66853 3.25253 
18 1 1.71658 2.20335 3.09843 
19 2 4.20809 3.64499 0.6235 
20 2 4.00595 3.223 2.34365 
21 1 1.31758 0.379898 0.0704161 
22 1 2.81478 1.31724 4.00211 
23 1 0.496508 3.15368 2.14017 
24 1 2.84202 3.6519 1.23173 
25 1 4.32014 2.7783 0.433239 
26 1 2.96801 3.6851 3.89383 
27 1 1.11984 1.38063 0.384431 
28 1 0.40009 4.31538 3.60695 
29 2 2.42196 1.84734 3.43533 
30 2 3.41441 2.9369 4.00711 
31 1 4.12032 2.55869 3.73094 
32 1 1.62648 0.424837 2.3919 
33 1 1.52921 2.54226 4.10845 
34 1 2.00161 1.61345 2.2087 
35 1 1.86128 0.752128 1.44738 
36 1 0.925215 0.516565 1.02905 
37 1 1.33343 3.44799 0.312192 
38 1 0.246997 1.53577 2.20188 
39 2 1.0213 1.82907 3.49438 
40 2 3.56917 4.17691 1.48952 
41 1 3.40559 3.27564 0.451581 
42 1 1.78757 2.27751 1.44226 
43 1 0.607917 0.54724 2.07476 
44 1 0.503479 4.08466 0.26028 
45 1 1.51192 3.25682 2.3558 
46 1 2.42601 3.35939 2.96064 
47 1 2.00257 4.05065 4.10778 
48 1 4.33244 4.0529 2.24719 
49 2 2.66304 2.15856 1.83159 
50 2 3.67464 2.67404 1.02716 
51 1 1.42526 0.322202 3.41123 
52 1 3.37465 1.90009 3.32456 
53 1 4.31931 0.659756 2.90182 
54 1 3.43871 3.03057 3.07682 
55 1 3.95478 3.38934 1.4217 
56 1 1.05634 2.21964 2.20549 
57 1 0.0726082 3.40755 3.10037 
58 1 2.38461 3.19581 0.31549 
59 2 1.72899 1.5231 1.02331 
60 2 2.94817 0.0737335 2.50533 
61 1 2.65735 0.793479 2.18077 
62 1 0.0880511 0.68696 0.400543 
63 1 1.14452 4.06629 1.71412 
64 1 4.20393 0.972839 1.41241 
65 1 3.28629 3.70234 2.20614 
66 1 2.0286 4.23973 0.799898 
67 1 2.4459 3.02 1.95056 
68 1 3.43362 2.64117 1.93863 
69 2 1.80384 2.67422 0.6513 
70 2 1.03555 2.79842 1.54584 
71 1 3.24483 0.792777 3.08825 
72 1 3.59789 4.12265 3.11514 
73 1 1.08963 1.25042 2.85413 
74 1 0.592696 2.09112 4.16645 
75 1 0.0527478 4.302 1.23962 
76 1 0.598698 3.20352 4.00619 
77 1 3.61845 4.30731 0.541327 
78 1 4.02844 3.66429 4.08229 
79 2 2.8164 1.45817 2.72152 
80 2 1.8916 2.46748 2.29444 
81 1 2.62365 2.62743 3.79112 
82 1 2.15686 0.913866 0.426316 
83 1 3.85864 0.396782 3.92729 
84 1 2.47658 4.41849 3.23625 
85 1 2.78895 2.59998 1.06198 
86 1 3.56806 1.84885 1.24318 
87 1 3.3882 1.02116 0.551229 
88 1 1.69544 1.46812 3.92837 
89 2 1.79871 4.03161 2.82411 
90 2 2.80307 3.96076 0.386285 
91 1 0.677063 0.981484 3.85289 
92 1 3.63847 0.433791 2.10274 
93 1 1.50413 3.39989 3.43144 
94 1 0.912297 4.03706 2.72884 
95 1 2.69125 2.32966 2.69556 
96 1 0.0970451 1.69667 0.663783 
97 1 2.61018 1.47039 1.28576 
98 1 3.3441 2.21289 0.167873 
99 2 3.32837 1.05257 1.56642 
100 2 1.26124 1.12531 2.00766 
ITEM: TIMESTEP
404000
ITEM: NUMBER OF ATOMS
100
ITEM: BOX BOUNDS pp pp pp
0.0000000000000000e+00 4.3679023236814940e+00
0.0000000000000000e+00 4.3679023236814940e+00
0.0000000000000000e+00 4.3679023236814940e+00
ITEM: ATOMS id type x y z 
1 1 3.43936 1.53 2.16432 
2 1 0.92417 1.59999 1.43761 
3 1 2.83638 0.293899 4.24086 
4 1 2.86632 0.359964 1.17857 
5 1 1.00252 2.42102 0.721558 
6 1 2.16328 1.04856 3.12764 
7 1 1.71968 3.30169 1.30481 
8 1 0.618897 3.34894 1.07999 
9 2 2.08315 0.690181 3.93232 
10 2 1.12467 4.0009 4.04108 
11 1 2.26214 4.07026 1.98102 
12 1 2.25957 1.98727 0.38496 
13 1 4.22258 2.44973 2.62775 
14 1 0.755811 2.65483 3.15794 
15 1 3.98691 1.451 4.07976 
16 1 0.145064 2.43689 1.47743 
17 1 0.202886 1.70856 3.23098 
18 1 1.74341 2.28775 3.15088 
19 2 4.20106 3.64067 0.606135 
20 2 3.97405 3.23744 2.32693 
21 1 1.3186 0.376618 0.113647 
22 1 2.83614 1.32745 3.99134 
23 1 0.484048 3.18111 2.1196 
24 1 2.83344 3.64196 1.21658 
25 1 4.33931 2.76462 0.43494 
26 1 2.96631 3.68019 3.85467 
27 1 1.12079 1.38886 0.432916 
28 1 0.38447 4.31462 3.62901 
29 2 2.40442 1.84848 3.44943 
30 2 3.43048 2.95142 4.02156 
31 1 4.11982 2.56933 3.73295 
32 1 1.63576 0.393516 2.45465 
33 1 1.58584 2.56525 4.15379 
34 1 2.00181 1.59911 2.21573 
35 1 1.81929 0.713237 1.4547 
36 1 0.841952 0.575754 1.07393 
37 1 1.38966 3.4654 0.331327 
38 1 0.169254 1.54699 2.18936 
39 2 1.06646 1.85361 3.45473 
40 2 3.50223 4.16209 1.47953 
41 1 3.42157 3.25513 0.460886 
42 1 1.83622 2.27584 1.42365 
43 1 0.588259 0.576349 2.1003 
44 1 0.502734 4.09466 0.326124 
45 1 1.47284 3.20764 2.38021 
46 1 2.4086 3.37284 2.94856 
47 1 2.01376 4.04447 4.10415 
48 1 4.29701 4.07423 2.29101 
49 2 2.68391 2.12954 1.8294 
50 2 3.71378 2.67963 1.03986 
51 1 1.40947 0.283988 3.46182 
52 1 3.44316 1.87095 3.24569 
53 1 4.33763 0.707665 2.99928 
54 1 3.43128 3.03062 3.07702 
55 1 3.95615 3.38513 1.43301 
56 1 1.06734 2.18285 2.27952 
57 1 0.0399916 3.42284 3.10581 
58 1 2.39146 3.17882 0.241671 
59 2 1.7816 1.50442 0.996823 
60 2 2.95357 0.0697653 2.52031 
61 1 2.62272 0.764481 2.13805 
62 1 0.0888849 0.689311 0.321979 
63 1 1.12475 4.07619 1.71305 
64 1 4.23291 0.998915 1.3672 
65 1 3.24514 3.68628 2.21289 
66 1 1.99368 4.2213 0.813452 
67 1 2.47595 3.00262 1.95452 
68 1 3.43425 2.59282 1.95201 
69 2 1.81259 2.70378 0.664603 
70 2 1.04449 2.68117 1.55772 
71 1 3.2186 0.807792 3.07452 
72 1 3.55268 4.15129 3.10142 
73 1 1.1008 1.2189 2.87479 
74 1 0.616452 2.11104 4.15172 
75 1 0.0287535 4.29814 1.26293 
76 1 0.610229 3.21141 4.04488 
77 1 3.60521 4.2912 0.567112 
78 1 4.0041 3.6806 4.05696 
79 2 2.77246 1.45927 2.67155 
80 2 1.90869 2.45763 2.30726 
81 1 2.67097 2.57588 3.79315 
82 1 2.17293 0.929259 0.430784 
83 1 3.82085 0.414198 3.90894 
84 1 2.43922 4.40952 3.20545 
85 1 2.80222 2.57178 1.05143 
86 1 3.5723 1.86292 1.18441 
87 1 3.40795 1.05493 0.517238 
88 1 1.70709 1.50699 3.93159 
89 2 1.77676 3.9735 2.78449 
90 2 2.76095 3.95854 0.373072 
91 1 0.700726 1.02586 3.85271 
92 1 3.62386 0.457703 2.081 
93 1 1.43475 3.42616 3.42113 
94 1 0.878701 4.05729 2.7317 
95 1 2.67982 2.30786 2.7058 
96 1 0.126434 1.72009 0.645282 
97 1 2.61409 1.44399 1.2774 
98 1 3.41527 2.2036 0.18299 
99 2 3.35181 1.02799 1.44846 
100 2 1.30218 1.10799 2.03389 
ITEM: TIMESTEP
405000
ITEM: NUMBER OF ATOMS
100
ITEM: BOX BOUNDS pp pp pp
0.0000000000000000e+00 4.3679023236814940e+00
0.0000000000000000e+00 4.3679023236814940e+00
0.0000000000000000e+00 4.3679023236814940e+00
ITEM: ATOMS id type x y z 
1 1 3.5317 1.51756 2.25057 
2 1 0.912458 1.59494 1.38807 
3 1 2.82992 0.312393 4.22399 
4 1 2.87378 0.353421 1.21042 
5 1 1.01339 2.44256 0.702863 
6 1 2.1574 1.02377 3.16945 
7 1 1.78941 3.30548 1.26232 
8 1 0.601011 3.35252 1.10868 
9 2 2.04255 0.631683 3.93561 
10 2 1.11506 3.97738 4.01289 
11 1 2.28428 4.12842 2.01955 
12 1 2.23112 1.95308 0.380959 
13 1 4.20362 2.41137 2.59584 
14 1 0.733831 2.6213 3.17667 