LAMMPS (7 Aug 2019)
OMP_NUM_THREADS environment is not set. Defaulting to 1 thread. (../comm.cpp:93)
  using 1 OpenMP thread(s) per MPI task
# Example GCMC simulation by Paul Crozier
# Initialization ------------------------------------------

units		real
atom_style     	full
boundary        p p p
lattice         fcc 1
Lattice spacing in x,y,z = 1 1 1
box		tilt large

region         	box block 0 300 0 300 0 300 units box
create_box      1 box
Created orthogonal box = (0 0 0) to (300 300 300)
  1 by 1 by 1 MPI processor grid

mass		1 9.8551e+04

# Potential - here it is table potential ------------------

include		ana_pot0.mod
pair_style mie/cut 150.0

pair_coeff	1	1	2660.77425533	50.0	28	14

group 		n1 type 1
0 atoms in group n1

thermo		10
compute_modify 	thermo_temp dynamic yes

variable       	chempot equal  -2
variable       	density equal atoms/vol
variable       	specdensity equal v_density*1.39156E-25*1e27
variable	denc1 equal count(n1)*1.39156E-25*1e27/vol
variable       	chempotkcal equal ${chempot}/503.219
variable       	chempotkcal equal -2/503.219
variable	n1 equal count(n1)

compute         peratom all stress/atom NULL
compute         ns1 n1 reduce sum c_peratom[1] c_peratom[2] c_peratom[3]
compute         ss1 n1 reduce sum c_peratom[4] c_peratom[5] c_peratom[6]

variable     	totns1 equal -(c_ns1[1]+c_ns1[2]+c_ns1[3])/(3*vol)
variable     	totss1 equal -(c_ss1[1]+c_ss1[2]+c_ss1[3])/(3*vol)

variable 	ru equal 10^(4)

fix           	2 n1 gcmc 1 1 1 1 294 300.0 ${chempotkcal} 25 grouptype 1 n1
fix           	2 n1 gcmc 1 1 1 1 294 300.0 -0.00397441273083886 25 grouptype 1 n1


thermo_style   	custom step atoms pe vol density press v_chempot v_n1 v_totns1 v_totss1
dump		1 all custom 10 dump.gc.lammpstrj id type x y z
dump_modify	1 append yes sort id
run		${ru}
run		10000
Neighbor list info ...
  update every 1 steps, delay 10 steps, check yes
  max neighbors/atom: 2000, page size: 100000
  master list distance cutoff = 152
  ghost atom cutoff = 152
  binsize = 76, bins = 4 4 4
  1 neighbor lists, perpetual/occasional/extra = 1 0 0
  (1) pair mie/cut, perpetual
      attributes: half, newton on
      pair build: half/bin/newton
      stencil: half/bin/3d/newton
      bin: standard
Per MPI rank memory allocation (min/avg/max) = 0.4344 | 0.4344 | 0.4344 Mbytes
Step Atoms PotEng Volume Density Press v_chempot v_n1 v_totns1 v_totss1 
       0        0            0 27000000            0            0           -2            0           -0           -0 
      10        9   -1551.1225 27000000  0.054549257   -14.551032           -2            9   -14.551032   -13.991858 
      20       14    -4832.318 27000000    0.0848544   -34.235598           -2           14   -34.235598   -12.651119 
      30       17   -6947.5035 27000000   0.10303749    6.8065995           -2           17    6.8065995   -30.044197 
      40       21    -7919.503 27000000    0.1272816   -4.1573794           -2           21   -4.1573794   -32.115769 
      50       25   -10963.322 27000000   0.15152571    12.883049           -2           25    12.883049    -40.74959 
      60       28   -18344.572 27000000    0.1697088    74.955744           -2           28    74.955744   -26.282371 
      70       30   -24368.639 27000000   0.18183086    -67.94306           -2           30    -67.94306   -35.301069 
      80       33   -36326.808 27000000   0.20001394    -127.3081           -2           33    -127.3081   -36.873647 
      90       35   -42055.259 27000000     0.212136   -136.56405           -2           35   -136.56405   -26.596598 
     100       37    -43488.21 27000000   0.22425806   -152.73438           -2           37   -152.73438   -26.645632 
     110       37   -46338.243 27000000   0.22425806   -143.27229           -2           37   -143.27229    -28.50499 
     120       39   -51243.868 27000000   0.23638011   -188.83275           -2           39   -188.83275   -21.276458 
     130       40   -52841.249 27000000   0.24244114   -198.10702           -2           40   -198.10702   -20.877719 
     140       41   -54999.328 27000000   0.24850217   -198.98551           -2           41   -198.98551   -23.409378 
     150       44   -66820.744 27000000   0.26668526   -124.59084           -2           44   -124.59084   0.88286458 
     160       45   -67025.614 27000000   0.27274629   -126.97677           -2           45   -126.97677   -1.0889642 
     170       48   -70199.553 27000000   0.29092937   -74.369423           -2           48   -74.369423    20.119819 
     180       49   -71229.177 27000000    0.2969904   -99.208768           -2           49   -99.208768    19.127965 
     190       50   -71594.946 27000000   0.30305143    33.406325           -2           50    33.406325   -13.078488 
     200       50   -76069.873 27000000   0.30305143   -105.31981           -2           50   -105.31981    17.445302 
     210       50   -78676.452 27000000   0.30305143   -49.383202           -2           50   -49.383202    44.305907 
     220       51   -80574.088 27000000   0.30911246   -65.913882           -2           51   -65.913882    31.244163 
     230       51    -81911.35 27000000   0.30911246    19.859328           -2           51    19.859328   -18.847927 
     240       51   -81951.961 27000000   0.30911246    19.382021           -2           51    19.382021   -18.810305 
     250       54   -84399.453 27000000   0.32729554   -3.4353345           -2           54   -3.4353345   -24.544381 
     260       56   -90541.945 27000000    0.3394176    7.4602316           -2           56    7.4602316   -19.803081 
     270       56   -92597.036 27000000    0.3394176   -4.2461201           -2           56   -4.2461201   -28.135697 
     280       56   -92597.036 27000000    0.3394176   -4.2461201           -2           56   -4.2461201   -28.135697 
     290       59   -104038.67 27000000   0.35760069   -47.796173           -2           59   -47.796173   -26.198366 
     300       61   -106975.58 27000000   0.36972274   -70.107338           -2           61   -70.107338   -21.302426 
     310       63   -116655.04 27000000    0.3818448   -103.14583           -2           63   -103.14583   -27.909195 
     320       63   -119522.08 27000000    0.3818448   -106.76601           -2           63   -106.76601   -29.102235 
     330       63   -121628.87 27000000    0.3818448   -116.87265           -2           63   -116.87265   -21.651461 
     340       65   -131990.06 27000000   0.39396686   -135.13134           -2           65   -135.13134   -59.912633 
     350       65    -132895.9 27000000   0.39396686    -135.8786           -2           65    -135.8786   -57.078355 
     360       68   -142987.57 27000000   0.41214994   -87.285033           -2           68   -87.285033   -61.132724 
     370       68    -146948.5 27000000   0.41214994   -188.12881           -2           68   -188.12881   -96.803904 
     380       69   -150647.71 27000000   0.41821097   -226.54261           -2           69   -226.54261   -102.14494 
     390       69   -153549.09 27000000   0.41821097    -264.4961           -2           69    -264.4961   -101.36021 
     400       69   -155672.28 27000000   0.41821097   -147.86435           -2           69   -147.86435   -117.99908 
     410       70   -161710.18 27000000     0.424272   -170.35908           -2           70   -170.35908   -109.63209 
     420       71   -166399.21 27000000   0.43033303    -84.48469           -2           71    -84.48469   -128.55315 
     430       72   -167964.59 27000000   0.43639406   -16.580274           -2           72   -16.580274   -138.16315 
     440       73   -174187.89 27000000   0.44245509   -35.865927           -2           73   -35.865927   -153.82093 
     450       74    -177761.3 27000000   0.44851611   -66.942061           -2           74   -66.942061   -164.12666 
     460       74   -178584.09 27000000   0.44851611   -158.43444           -2           74   -158.43444    -159.0165 
     470       74   -181703.98 27000000   0.44851611   -101.80857           -2           74   -101.80857    -149.0033 
     480       74   -181703.98 27000000   0.44851611   -101.80857           -2           74   -101.80857    -149.0033 
     490       76   -184452.18 27000000   0.46063817   -26.921601           -2           76   -26.921601   -178.64209 
     500       77   -185188.62 27000000    0.4666992    277.01108           -2           77    277.01108   -82.337057 
     510       77   -189494.87 27000000    0.4666992    311.21848           -2           77    311.21848   -75.157167 
     520       77   -189494.87 27000000    0.4666992    311.21848           -2           77    311.21848   -75.157167 
     530       77   -193748.67 27000000    0.4666992    385.28634           -2           77    385.28634   -67.474724 
     540       78   -198275.39 27000000   0.47276023    270.61708           -2           78    270.61708   -28.486634 
     550       80   -205968.35 27000000   0.48488229    290.77052           -2           80    290.77052   -44.923146 
     560       80   -205968.35 27000000   0.48488229    290.77052           -2           80    290.77052   -44.923146 
     570       81   -209305.07 27000000   0.49094331    260.66035           -2           81    260.66035   -39.311248 
     580       82   -216136.07 27000000   0.49700434    146.60098           -2           82    146.60098   -22.766618 
     590       82    -218450.5 27000000   0.49700434    147.93584           -2           82    147.93584   -17.583735 
     600       82   -220342.05 27000000   0.49700434    139.08997           -2           82    139.08997   -7.2592258 
     610       83   -223963.14 27000000   0.50306537    140.37673           -2           83    140.37673   0.71962554 
     620       83   -223963.14 27000000   0.50306537    140.37673           -2           83    140.37673   0.71962554 
     630       83   -223963.14 27000000   0.50306537    140.37673           -2           83    140.37673   0.71962554 
     640       83   -225097.83 27000000   0.50306537    212.43814           -2           83    212.43814   -26.985193 
     650       84   -228080.83 27000000    0.5091264    326.30104           -2           84    326.30104   -29.957976 
     660       84   -230405.55 27000000    0.5091264    225.76684           -2           84    225.76684   -10.664865 
     670       85   -239920.66 27000000   0.51518743    -55.91828           -2           85    -55.91828   -66.406321 
     680       87   -251377.53 27000000   0.52730948   -71.704153           -2           87   -71.704153   -73.239497 
     690       87   -253460.71 27000000   0.52730948   -180.37522           -2           87   -180.37522   -30.858028 
     700       88   -258238.66 27000000   0.53337051   -241.21153           -2           88   -241.21153   -22.919103 
     710       89   -264836.52 27000000   0.53943154   -204.77415           -2           89   -204.77415   -66.475052 
     720       89   -266013.64 27000000   0.53943154   -259.42182           -2           89   -259.42182   -96.203869 
     730       90   -270666.88 27000000   0.54549257   -253.59362           -2           90   -253.59362   -98.207737 
     740       93   -280330.08 27000000   0.56367566    30.949379           -2           93    30.949379    -15.20415 
     750       93   -280330.08 27000000   0.56367566    30.949379           -2           93    30.949379    -15.20415 
     760       94   -284940.65 27000000   0.56973668    86.321642           -2           94    86.321642   -65.385265 
     770       94   -289098.64 27000000   0.56973668    74.750493           -2           94    74.750493   -72.535223 
     780       94   -289098.64 27000000   0.56973668    74.750493           -2           94    74.750493   -72.535223 
     790       94   -289098.64 27000000   0.56973668    74.750493           -2           94    74.750493   -72.535223 
     800       94   -289098.64 27000000   0.56973668    74.750493           -2           94    74.750493   -72.535223 
     810       94   -289103.55 27000000   0.56973668   -89.585211           -2           94   -89.585211   -131.55193 
     820       94   -289103.55 27000000   0.56973668   -89.585211           -2           94   -89.585211   -131.55193 
     830       94   -289670.79 27000000   0.56973668   -162.63824           -2           94   -162.63824   -143.44123 
     840       94   -289699.22 27000000   0.56973668   -152.41747           -2           94   -152.41747   -134.26205 
     850       94   -290482.32 27000000   0.56973668   -144.46276           -2           94   -144.46276   -133.76963 
     860       94   -290482.32 27000000   0.56973668   -144.46276           -2           94   -144.46276   -133.76963 
     870       94    -293544.9 27000000   0.56973668   -247.27095           -2           94   -247.27095   -144.56744 
     880       94    -293544.9 27000000   0.56973668   -247.27095           -2           94   -247.27095   -144.56744 
     890       95   -301721.75 27000000   0.57579771   -268.53902           -2           95   -268.53902   -160.41737 
     900       95   -303294.44 27000000   0.57579771   -261.26795           -2           95   -261.26795    -164.5216 
     910       95   -303294.44 27000000   0.57579771   -261.26795           -2           95   -261.26795    -164.5216 
     920       95   -303782.18 27000000   0.57579771   -348.45803           -2           95   -348.45803   -118.98868 
     930       96   -311389.03 27000000   0.58185874   -364.89085           -2           96   -364.89085   -126.76752 
     940       96   -311389.03 27000000   0.58185874   -364.89085           -2           96   -364.89085   -126.76752 
     950       96   -311389.03 27000000   0.58185874   -364.89085           -2           96   -364.89085   -126.76752 
     960       97   -317543.81 27000000   0.58791977    -409.2826           -2           97    -409.2826   -116.83472 
     970       97   -320811.07 27000000   0.58791977   -410.63939           -2           97   -410.63939   -96.994969 
     980       97   -320811.07 27000000   0.58791977   -410.63939           -2           97   -410.63939   -96.994969 
     990       99   -336425.21 27000000   0.60004183   -216.33341           -2           99   -216.33341   -172.70423 
    1000       99   -336425.21 27000000   0.60004183   -216.33341           -2           99   -216.33341   -172.70423 
    1010       99   -340052.48 27000000   0.60004183   -394.33535           -2           99   -394.33535   -142.85293 
    1020       99   -340052.48 27000000   0.60004183   -394.33535           -2           99   -394.33535   -142.85293 
    1030      100   -348611.52 27000000   0.60610286    -471.3879           -2          100    -471.3879   -138.16418 
    1040      101   -354022.16 27000000   0.61216388   -513.33595           -2          101   -513.33595   -147.03533 
    1050      101   -357538.51 27000000   0.61216388   -729.17684           -2          101   -729.17684   -133.71876 
    1060      101   -361074.81 27000000   0.61216388   -849.40407           -2          101   -849.40407   -140.58019 
    1070      103   -374796.43 27000000   0.62428594   -891.58822           -2          103   -891.58822   -94.698288 
    1080      104    -380965.9 27000000   0.63034697   -883.24451           -2          104   -883.24451     -38.1177 
    1090      104    -380965.9 27000000   0.63034697   -883.24451           -2          104   -883.24451     -38.1177 
    1100      104    -381624.2 27000000   0.63034697   -901.82866           -2          104   -901.82866   -44.712832 
    1110      104    -381624.2 27000000   0.63034697   -901.82866           -2          104   -901.82866   -44.712832 
    1120      104    -381624.2 27000000   0.63034697   -901.82866           -2          104   -901.82866   -44.712832 
    1130      104   -381730.07 27000000   0.63034697   -821.90765           -2          104   -821.90765   -73.482965 
    1140      104   -381730.07 27000000   0.63034697   -821.90765           -2          104   -821.90765   -73.482965 
    1150      105   -384436.45 27000000     0.636408   -948.02984           -2          105   -948.02984   -66.310062 
    1160      106    -392617.1 27000000   0.64246903   -994.34228           -2          106   -994.34228   -57.867275 
    1170      106    -392617.1 27000000   0.64246903   -994.34228           -2          106   -994.34228   -57.867275 
    1180      106   -394237.91 27000000   0.64246903   -930.82472           -2          106   -930.82472   -51.622341 
    1190      106   -394237.91 27000000   0.64246903   -930.82472           -2          106   -930.82472   -51.622341 
    1200      106   -394237.91 27000000   0.64246903   -930.82472           -2          106   -930.82472   -51.622341 
    1210      106   -394237.91 27000000   0.64246903   -930.82472           -2          106   -930.82472   -51.622341 
    1220      106   -394237.91 27000000   0.64246903   -930.82472           -2          106   -930.82472   -51.622341 
    1230      107   -401366.97 27000000   0.64853006   -936.07741           -2          107   -936.07741   -42.284717 
    1240      107   -401366.97 27000000   0.64853006   -936.07741           -2          107   -936.07741   -42.284717 
    1250      107   -401551.12 27000000   0.64853006   -938.63155           -2          107   -938.63155   -41.912996 
    1260      108   -406709.61 27000000   0.65459108   -975.70338           -2          108   -975.70338   -57.906518 
    1270      108   -406709.61 27000000   0.65459108   -975.70338           -2          108   -975.70338   -57.906518 
    1280      108   -406709.61 27000000   0.65459108   -975.70338           -2          108   -975.70338   -57.906518 
    1290      108   -406709.61 27000000   0.65459108   -975.70338           -2          108   -975.70338   -57.906518 
    1300      109   -411108.67 27000000   0.66065211   -1021.5665           -2          109   -1021.5665   -53.929183 
    1310      109   -411108.67 27000000   0.66065211   -1021.5665           -2          109   -1021.5665   -53.929183 
    1320      109   -413840.25 27000000   0.66065211   -944.06547           -2          109   -944.06547   -54.803642 
    1330      109   -413840.25 27000000   0.66065211   -944.06547           -2          109   -944.06547   -54.803642 
    1340      109   -414146.75 27000000   0.66065211   -947.57027           -2          109   -947.57027   -51.254506 
    1350      109   -414879.06 27000000   0.66065211   -942.52012           -2          109   -942.52012    29.830066 
    1360      109   -414879.06 27000000   0.66065211   -942.52012           -2          109   -942.52012    29.830066 
    1370      110   -418552.93 27000000   0.66671314   -1027.7733           -2          110   -1027.7733    37.924445 
    1380      110   -418552.93 27000000   0.66671314   -1027.7733           -2          110   -1027.7733    37.924445 
    1390      110   -419777.67 27000000   0.66671314   -1071.7914           -2          110   -1071.7914    27.307468 
    1400      111   -422740.49 27000000   0.67277417   -939.22194           -2          111   -939.22194   -52.684457 
    1410      111   -422740.49 27000000   0.67277417   -939.22194           -2          111   -939.22194   -52.684457 
    1420      111   -426313.88 27000000   0.67277417   -1049.8582           -2          111   -1049.8582   -38.872551 
    1430      111   -429664.72 27000000   0.67277417   -1030.9232           -2          111   -1030.9232    -25.78091 
    1440      114   -455651.56 27000000   0.69095726   -1089.6951           -2          114   -1089.6951    -55.65739 
    1450      114   -455651.56 27000000   0.69095726   -1089.6951           -2          114   -1089.6951    -55.65739 
    1460      114   -455651.56 27000000   0.69095726   -1089.6951           -2          114   -1089.6951    -55.65739 
    1470      115   -463343.71 27000000   0.69701828    -1144.411           -2          115    -1144.411   -55.710989 
    1480      115   -463343.71 27000000   0.69701828    -1144.411           -2          115    -1144.411   -55.710989 
    1490      115   -463343.71 27000000   0.69701828    -1144.411           -2          115    -1144.411   -55.710989 
    1500      115   -463343.71 27000000   0.69701828    -1144.411           -2          115    -1144.411   -55.710989 
    1510      115   -463343.71 27000000   0.69701828    -1144.411           -2          115    -1144.411   -55.710989 
    1520      115   -463343.71 27000000   0.69701828    -1144.411           -2          115    -1144.411   -55.710989 
    1530      115   -466159.79 27000000   0.69701828    -1135.696           -2          115    -1135.696   -71.434602 
    1540      115   -466159.79 27000000   0.69701828    -1135.696           -2          115    -1135.696   -71.434602 
    1550      115   -466159.79 27000000   0.69701828    -1135.696           -2          115    -1135.696   -71.434602 
    1560      115   -466159.79 27000000   0.69701828    -1135.696           -2          115    -1135.696   -71.434602 
    1570      115   -466159.79 27000000   0.69701828    -1135.696           -2          115    -1135.696   -71.434602 
    1580      115   -470223.15 27000000   0.69701828   -1112.1923           -2          115   -1112.1923   -43.605929 
    1590      115   -470223.15 27000000   0.69701828   -1112.1923           -2          115   -1112.1923   -43.605929 
    1600      115   -470223.15 27000000   0.69701828   -1112.1923           -2          115   -1112.1923   -43.605929 
    1610      115   -470682.78 27000000   0.69701828   -1107.7532           -2          115   -1107.7532   -45.147644 
    1620      115   -473238.66 27000000   0.69701828   -1203.6401           -2          115   -1203.6401    19.193428 
    1630      116    -478880.7 27000000   0.70307931   -1161.8271           -2          116   -1161.8271   0.42430958 
    1640      116    -478880.7 27000000   0.70307931   -1161.8271           -2          116   -1161.8271   0.42430958 
    1650      116   -482265.79 27000000   0.70307931   -1189.0426           -2          116   -1189.0426    26.794228 
    1660      116   -482265.79 27000000   0.70307931   -1189.0426           -2          116   -1189.0426    26.794228 
    1670      116   -482265.79 27000000   0.70307931   -1189.0426           -2          116   -1189.0426    26.794228 
    1680      116   -482265.79 27000000   0.70307931   -1189.0426           -2          116   -1189.0426    26.794228 
    1690      116   -482265.79 27000000   0.70307931   -1189.0426           -2          116   -1189.0426    26.794228 
    1700      116   -482265.79 27000000   0.70307931   -1189.0426           -2          116   -1189.0426    26.794228 
    1710      117   -489063.38 27000000   0.70914034   -1214.4345           -2          117   -1214.4345    28.646018 
    1720      117   -491927.76 27000000   0.70914034   -1247.2694           -2          117   -1247.2694    33.865063 
    1730      117   -491927.76 27000000   0.70914034   -1247.2694           -2          117   -1247.2694    33.865063 
    1740      119   -495934.24 27000000    0.7212624   -1103.0638           -2          119   -1103.0638   -75.833748 
    1750      119   -495934.24 27000000    0.7212624   -1103.0638           -2          119   -1103.0638   -75.833748 
    1760      119   -495934.24 27000000    0.7212624   -1103.0638           -2          119   -1103.0638   -75.833748 
    1770      119   -495934.24 27000000    0.7212624   -1103.0638           -2          119   -1103.0638   -75.833748 
    1780      119   -497911.01 27000000    0.7212624   -1034.9297           -2          119   -1034.9297   -99.532286 
    1790      119   -497911.01 27000000    0.7212624   -1034.9297           -2          119   -1034.9297   -99.532286 
    1800      119   -497911.01 27000000    0.7212624   -1034.9297           -2          119   -1034.9297   -99.532286 
    1810      120   -500853.23 27000000   0.72732343   -1026.8057           -2          120   -1026.8057    -105.4742 
    1820      120   -500853.23 27000000   0.72732343   -1026.8057           -2          120   -1026.8057    -105.4742 
    1830      120   -502426.17 27000000   0.72732343   -1006.4558           -2          120   -1006.4558   -58.914175 
    1840      120   -502524.57 27000000   0.72732343   -1049.0448           -2          120   -1049.0448   -55.524213 
    1850      120   -502524.57 27000000   0.72732343   -1049.0448           -2          120   -1049.0448   -55.524213 
    1860      120   -502539.28 27000000   0.72732343   -1048.1875           -2          120   -1048.1875   -54.146322 
    1870      120   -502539.28 27000000   0.72732343   -1048.1875           -2          120   -1048.1875   -54.146322 
    1880      121   -508006.91 27000000   0.73338446   -885.16172           -2          121   -885.16172   -89.303052 
    1890      121   -508006.91 27000000   0.73338446   -885.16172           -2          121   -885.16172   -89.303052 
    1900      121   -511226.24 27000000   0.73338446   -703.15223           -2          121   -703.15223   -23.287282 
    1910      121   -513055.14 27000000   0.73338446   -757.94258           -2          121   -757.94258     67.32193 
    1920      121   -513055.14 27000000   0.73338446   -757.94258           -2          121   -757.94258     67.32193 
    1930      121    -514208.5 27000000   0.73338446   -710.65834           -2          121   -710.65834    51.618543 
    1940      121    -514208.5 27000000   0.73338446   -710.65834           -2          121   -710.65834    51.618543 
    1950      121    -514208.5 27000000   0.73338446   -710.65834           -2          121   -710.65834    51.618543 
    1960      121   -516160.83 27000000   0.73338446   -730.09179           -2          121   -730.09179    45.757375 
    1970      122   -526540.58 27000000   0.73944548    -642.8084           -2          122    -642.8084    71.433199 
    1980      122   -526540.58 27000000   0.73944548    -642.8084           -2          122    -642.8084    71.433199 
    1990      122   -527813.15 27000000   0.73944548   -638.04177           -2          122   -638.04177    46.339567 
    2000      122   -527813.15 27000000   0.73944548   -638.04177           -2          122   -638.04177    46.339567 
    2010      122   -531418.84 27000000   0.73944548   -735.26438           -2          122   -735.26438    91.476913 
    2020      122   -531418.84 27000000   0.73944548   -735.26438           -2          122   -735.26438    91.476913 
    2030      122   -531648.91 27000000   0.73944548   -713.12597           -2          122   -713.12597    127.81839 
    2040      122   -533300.66 27000000   0.73944548   -593.70718           -2          122   -593.70718    270.18005 
    2050      122   -533300.66 27000000   0.73944548   -593.70718           -2          122   -593.70718    270.18005 
    2060      122   -533300.66 27000000   0.73944548   -593.70718           -2          122   -593.70718    270.18005 
    2070      122   -533300.66 27000000   0.73944548   -593.70718           -2          122   -593.70718    270.18005 
    2080      122    -533637.3 27000000   0.73944548   -574.30395           -2          122   -574.30395    285.31314 
    2090      122    -533637.3 27000000   0.73944548   -574.30395           -2          122   -574.30395    285.31314 
    2100      122   -538113.19 27000000   0.73944548   -642.58864           -2          122   -642.58864    321.02236 
    2110      122   -538113.19 27000000   0.73944548   -642.58864           -2          122   -642.58864    321.02236 
    2120      122   -538113.19 27000000   0.73944548   -642.58864           -2          122   -642.58864    321.02236 
    2130      123   -545598.61 27000000   0.74550651   -438.52317           -2          123   -438.52317    270.84367 
    2140      123   -545598.61 27000000   0.74550651   -438.52317           -2          123   -438.52317    270.84367 
    2150      123   -545598.61 27000000   0.74550651   -438.52317           -2          123   -438.52317    270.84367 
    2160      123   -545598.61 27000000   0.74550651   -438.52317           -2          123   -438.52317    270.84367 
    2170      123   -545598.61 27000000   0.74550651   -438.52317           -2          123   -438.52317    270.84367 
    2180      123   -545598.61 27000000   0.74550651   -438.52317           -2          123   -438.52317    270.84367 
    2190      124   -556260.04 27000000   0.75156754   -355.93042           -2          124   -355.93042    254.93837 
    2200      124   -557889.28 27000000   0.75156754   -484.21953           -2          124   -484.21953    286.51385 
    2210      124   -558349.65 27000000   0.75156754   -581.94396           -2          124   -581.94396    264.09348 
    2220      125   -568338.16 27000000   0.75762857   -535.93295           -2          125   -535.93295    244.23339 
    2230      125   -568599.47 27000000   0.75762857   -523.73483           -2          125   -523.73483     230.1918 
    2240      125   -572465.26 27000000   0.75762857   -587.54052           -2          125   -587.54052    251.55599 
    2250      126   -574650.41 27000000    0.7636896   -408.92962           -2          126   -408.92962    267.19037 
    2260      126   -574650.41 27000000    0.7636896   -408.92962           -2          126   -408.92962    267.19037 
    2270      126   -574650.41 27000000    0.7636896   -408.92962           -2          126   -408.92962    267.19037 
    2280      127   -585029.26 27000000   0.76975063   -405.39342           -2          127   -405.39342    272.38469 
    2290      127   -585029.26 27000000   0.76975063   -405.39342           -2          127   -405.39342    272.38469 
    2300      127   -586704.99 27000000   0.76975063     -446.064           -2          127     -446.064    271.33054 
    2310      127   -586704.99 27000000   0.76975063     -446.064           -2          127     -446.064    271.33054 
    2320      128   -598372.85 27000000   0.77581166   -517.45684           -2          128   -517.45684    264.47245 
    2330      128   -598684.04 27000000   0.77581166   -525.61759           -2          128   -525.61759    269.07397 
    2340      128   -600436.45 27000000   0.77581166   -461.29875           -2          128   -461.29875    265.13106 
    2350      129   -605714.91 27000000   0.78187268   -446.89122           -2          129   -446.89122    304.79361 
    2360      129   -605714.91 27000000   0.78187268   -446.89122           -2          129   -446.89122    304.79361 
    2370      129   -605714.91 27000000   0.78187268   -446.89122           -2          129   -446.89122    304.79361 
    2380      129   -607417.96 27000000   0.78187268   -451.97212           -2          129   -451.97212    301.05454 
    2390      129   -607417.96 27000000   0.78187268   -451.97212           -2          129   -451.97212    301.05454 
    2400      129   -607417.96 27000000   0.78187268   -451.97212           -2          129   -451.97212    301.05454 
    2410      129   -607417.96 27000000   0.78187268   -451.97212           -2          129   -451.97212    301.05454 
    2420      129   -607417.96 27000000   0.78187268   -451.97212           -2          129   -451.97212    301.05454 
    2430      129   -607417.96 27000000   0.78187268   -451.97212           -2          129   -451.97212    301.05454 
    2440      129   -607417.96 27000000   0.78187268   -451.97212           -2          129   -451.97212    301.05454 
    2450      129   -607417.96 27000000   0.78187268   -451.97212           -2          129   -451.97212    301.05454 
    2460      129   -608384.74 27000000   0.78187268   -446.08367           -2          129   -446.08367    301.18381 
    2470      129   -608384.74 27000000   0.78187268   -446.08367           -2          129   -446.08367    301.18381 
    2480      129   -608384.74 27000000   0.78187268   -446.08367           -2          129   -446.08367    301.18381 
    2490      129    -608595.3 27000000   0.78187268   -443.97113           -2          129   -443.97113    299.08964 
    2500      130   -610549.34 27000000   0.78793371   -183.54832           -2          130   -183.54832    255.13295 
    2510      130   -610549.34 27000000   0.78793371   -183.54832           -2          130   -183.54832    255.13295 
    2520      130   -610623.94 27000000   0.78793371   -194.54903           -2          130   -194.54903    261.74999 
    2530      130   -612645.85 27000000   0.78793371   -35.051022           -2          130   -35.051022    225.10892 
    2540      130   -612645.85 27000000   0.78793371   -35.051022           -2          130   -35.051022    225.10892 
    2550      130   -612645.85 27000000   0.78793371   -35.051022           -2          130   -35.051022    225.10892 
    2560      130   -612645.85 27000000   0.78793371   -35.051022           -2          130   -35.051022    225.10892 
    2570      131   -624611.41 27000000   0.79399474   -238.25729           -2          131   -238.25729    212.76737 
    2580      131   -626877.95 27000000   0.79399474   -248.63688           -2          131   -248.63688     204.0521 
    2590      131    -630610.7 27000000   0.79399474   -142.01391           -2          131   -142.01391    249.73323 
    2600      131    -630610.7 27000000   0.79399474   -142.01391           -2          131   -142.01391    249.73323 
    2610      131    -630610.7 27000000   0.79399474   -142.01391           -2          131   -142.01391    249.73323 
    2620      131    -630610.7 27000000   0.79399474   -142.01391           -2          131   -142.01391    249.73323 
    2630      131   -631831.53 27000000   0.79399474   -141.44404           -2          131   -141.44404    231.79636 
    2640      131   -631831.53 27000000   0.79399474   -141.44404           -2          131   -141.44404    231.79636 
    2650      131   -631831.53 27000000   0.79399474   -141.44404           -2          131   -141.44404    231.79636 
    2660      131   -631831.53 27000000   0.79399474   -141.44404           -2          131   -141.44404    231.79636 
    2670      131   -634242.38 27000000   0.79399474   -235.45941           -2          131   -235.45941    267.26564 
    2680      131   -634242.38 27000000   0.79399474   -235.45941           -2          131   -235.45941    267.26564 
    2690      131   -634242.38 27000000   0.79399474   -235.45941           -2          131   -235.45941    267.26564 
    2700      131   -634242.38 27000000   0.79399474   -235.45941           -2          131   -235.45941    267.26564 
    2710      131   -634242.38 27000000   0.79399474   -235.45941           -2          131   -235.45941    267.26564 
    2720      131   -634242.38 27000000   0.79399474   -235.45941           -2          131   -235.45941    267.26564 
    2730      131   -634242.38 27000000   0.79399474   -235.45941           -2          131   -235.45941    267.26564 
    2740      132   -642241.02 27000000   0.80005577    -110.0226           -2          132    -110.0226    287.81139 
    2750      132   -644678.54 27000000   0.80005577   -101.01363           -2          132   -101.01363    291.00555 
    2760      132   -644678.54 27000000   0.80005577   -101.01363           -2          132   -101.01363    291.00555 
    2770      132   -644678.54 27000000   0.80005577   -101.01363           -2          132   -101.01363    291.00555 
    2780      132   -646348.21 27000000   0.80005577   -122.12786           -2          132   -122.12786     303.5202 
    2790      132   -646348.21 27000000   0.80005577   -122.12786           -2          132   -122.12786     303.5202 
    2800      133   -650759.64 27000000    0.8061168   -146.73343           -2          133   -146.73343    298.74041 
    2810      134   -657660.29 27000000   0.81217783   -208.76107           -2          134   -208.76107    310.51623 
    2820      134   -657660.29 27000000   0.81217783   -208.76107           -2          134   -208.76107    310.51623 
    2830      134   -657660.29 27000000   0.81217783   -208.76107           -2          134   -208.76107    310.51623 
    2840      134   -657660.29 27000000   0.81217783   -208.76107           -2          134   -208.76107    310.51623 
    2850      134   -657660.29 27000000   0.81217783   -208.76107           -2          134   -208.76107    310.51623 
    2860      134   -657994.04 27000000   0.81217783   -222.95891           -2          134   -222.95891    298.19168 
    2870      134   -657994.04 27000000   0.81217783   -222.95891           -2          134   -222.95891    298.19168 
    2880      134   -657994.04 27000000   0.81217783   -222.95891           -2          134   -222.95891    298.19168 
    2890      134   -657994.04 27000000   0.81217783   -222.95891           -2          134   -222.95891    298.19168 
    2900      134   -657994.04 27000000   0.81217783   -222.95891           -2          134   -222.95891    298.19168 
    2910      134   -657994.04 27000000   0.81217783   -222.95891           -2          134   -222.95891    298.19168 
    2920      134   -657994.04 27000000   0.81217783   -222.95891           -2          134   -222.95891    298.19168 
    2930      134   -659086.63 27000000   0.81217783   -237.34813           -2          134   -237.34813    295.77926 
    2940      134   -659086.63 27000000   0.81217783   -237.34813           -2          134   -237.34813    295.77926 
    2950      134   -659086.63 27000000   0.81217783   -237.34813           -2          134   -237.34813    295.77926 
    2960      134   -660500.78 27000000   0.81217783   -373.26854           -2          134   -373.26854    288.09614 
    2970      134   -660500.78 27000000   0.81217783   -373.26854           -2          134   -373.26854    288.09614 
    2980      134   -660500.78 27000000   0.81217783   -373.26854           -2          134   -373.26854    288.09614 
    2990      134   -660500.78 27000000   0.81217783   -373.26854           -2          134   -373.26854    288.09614 
    3000      134   -662046.05 27000000   0.81217783   -308.55202           -2          134   -308.55202    266.25289 
    3010      134   -662046.05 27000000   0.81217783   -308.55202           -2          134   -308.55202    266.25289 
    3020      134   -662046.05 27000000   0.81217783   -308.55202           -2          134   -308.55202    266.25289 
    3030      134   -665003.35 27000000   0.81217783   -110.23972           -2          134   -110.23972    357.54612 
    3040      134   -665003.35 27000000   0.81217783   -110.23972           -2          134   -110.23972    357.54612 
    3050      134   -665003.35 27000000   0.81217783   -110.23972           -2          134   -110.23972    357.54612 
    3060      134   -665003.35 27000000   0.81217783   -110.23972           -2          134   -110.23972    357.54612 
    3070      134   -665717.82 27000000   0.81217783    -277.8802           -2          134    -277.8802     403.6501 
    3080      134   -665717.82 27000000   0.81217783    -277.8802           -2          134    -277.8802     403.6501 
    3090      134   -665717.82 27000000   0.81217783    -277.8802           -2          134    -277.8802     403.6501 
    3100      134   -665717.82 27000000   0.81217783    -277.8802           -2          134    -277.8802     403.6501 
    3110      134   -665717.82 27000000   0.81217783    -277.8802           -2          134    -277.8802     403.6501 
    3120      134   -665717.82 27000000   0.81217783    -277.8802           -2          134    -277.8802     403.6501 
    3130      134   -666475.24 27000000   0.81217783   -218.30923           -2          134   -218.30923    428.08818 
    3140      134   -666475.24 27000000   0.81217783   -218.30923           -2          134   -218.30923    428.08818 
    3150      134   -666967.12 27000000   0.81217783    -129.9764           -2          134    -129.9764     419.9212 
    3160      135   -675140.49 27000000   0.81823886   -173.69563           -2          135   -173.69563    433.43434 
    3170      136   -680645.92 27000000   0.82429988   -27.283159           -2          136   -27.283159    358.19771 
    3180      136   -680645.92 27000000   0.82429988   -27.283159           -2          136   -27.283159    358.19771 
    3190      136   -682142.92 27000000   0.82429988   -87.741908           -2          136   -87.741908    406.00963 
    3200      136   -682142.92 27000000   0.82429988   -87.741908           -2          136   -87.741908    406.00963 
    3210      136   -683232.95 27000000   0.82429988   -340.05775           -2          136   -340.05775    311.07739 
    3220      136   -683232.95 27000000   0.82429988   -340.05775           -2          136   -340.05775    311.07739 
    3230      136   -683232.95 27000000   0.82429988   -340.05775           -2          136   -340.05775    311.07739 
    3240      136   -683232.95 27000000   0.82429988   -340.05775           -2          136   -340.05775    311.07739 
    3250      136   -683232.95 27000000   0.82429988   -340.05775           -2          136   -340.05775    311.07739 
    3260      136   -683232.95 27000000   0.82429988   -340.05775           -2          136   -340.05775    311.07739 
    3270      136   -683232.95 27000000   0.82429988   -340.05775           -2          136   -340.05775    311.07739 
    3280      136   -683232.95 27000000   0.82429988   -340.05775           -2          136   -340.05775    311.07739 
    3290      136   -683232.95 27000000   0.82429988   -340.05775           -2          136   -340.05775    311.07739 
    3300      136   -683232.95 27000000   0.82429988   -340.05775           -2          136   -340.05775    311.07739 
    3310      136   -683232.95 27000000   0.82429988   -340.05775           -2          136   -340.05775    311.07739 
    3320      136   -683232.95 27000000   0.82429988   -340.05775           -2          136   -340.05775    311.07739 
    3330      136   -684230.71 27000000   0.82429988   -242.57082           -2          136   -242.57082    317.48994 
    3340      136   -684230.71 27000000   0.82429988   -242.57082           -2          136   -242.57082    317.48994 
    3350      136   -686560.03 27000000   0.82429988   -255.49861           -2          136   -255.49861    313.29042 
    3360      136   -686560.03 27000000   0.82429988   -255.49861           -2          136   -255.49861    313.29042 
    3370      136   -686750.22 27000000   0.82429988   -258.16568           -2          136   -258.16568    315.58388 
    3380      137   -695592.88 27000000   0.83036091   -326.24178           -2          137   -326.24178     328.1955 
    3390      137   -695908.36 27000000   0.83036091   -331.61813           -2          137   -331.61813    321.42413 
    3400      137   -695908.36 27000000   0.83036091   -331.61813           -2          137   -331.61813    321.42413 
    3410      137   -701440.29 27000000   0.83036091   -491.44076           -2          137   -491.44076    228.86081 
    3420      137   -701440.29 27000000   0.83036091   -491.44076           -2          137   -491.44076    228.86081 
    3430      137   -701815.36 27000000   0.83036091   -538.37417           -2          137   -538.37417    226.24838 
    3440      137   -702367.87 27000000   0.83036091   -451.55269           -2          137   -451.55269    265.71252 
    3450      137   -702367.87 27000000   0.83036091   -451.55269           -2          137   -451.55269    265.71252 
    3460      137   -702617.21 27000000   0.83036091    -430.3018           -2          137    -430.3018    242.27343 
    3470      137   -702617.21 27000000   0.83036091    -430.3018           -2          137    -430.3018    242.27343 
    3480      137   -702617.21 27000000   0.83036091    -430.3018           -2          137    -430.3018    242.27343 
    3490      137   -702617.21 27000000   0.83036091    -430.3018           -2          137    -430.3018    242.27343 
    3500      137   -702617.21 27000000   0.83036091    -430.3018           -2          137    -430.3018    242.27343 
    3510      137   -702833.19 27000000   0.83036091   -448.17743           -2          137   -448.17743    266.00542 
    3520      137   -702833.19 27000000   0.83036091   -448.17743           -2          137   -448.17743    266.00542 
    3530      137   -702833.19 27000000   0.83036091   -448.17743           -2          137   -448.17743    266.00542 
    3540      137   -702833.19 27000000   0.83036091   -448.17743           -2          137   -448.17743    266.00542 
    3550      137   -702833.19 27000000   0.83036091   -448.17743           -2          137   -448.17743    266.00542 
    3560      137   -702833.19 27000000   0.83036091   -448.17743           -2          137   -448.17743    266.00542 
    3570      137   -702833.19 27000000   0.83036091   -448.17743           -2          137   -448.17743    266.00542 
    3580      137   -703959.51 27000000   0.83036091   -414.60755           -2          137   -414.60755    285.07363 
    3590      137   -703959.51 27000000   0.83036091   -414.60755           -2          137   -414.60755    285.07363 
    3600      137   -703959.51 27000000   0.83036091   -414.60755           -2          137   -414.60755    285.07363 
    3610      137   -704112.66 27000000   0.83036091   -357.20779           -2          137   -357.20779     267.6414 
    3620      137   -704112.66 27000000   0.83036091   -357.20779           -2          137   -357.20779     267.6414 
    3630      137   -704112.66 27000000   0.83036091   -357.20779           -2          137   -357.20779     267.6414 
    3640      137   -704112.66 27000000   0.83036091   -357.20779           -2          137   -357.20779     267.6414 
    3650      137   -704112.66 27000000   0.83036091   -357.20779           -2          137   -357.20779     267.6414 
    3660      137   -704112.66 27000000   0.83036091   -357.20779           -2          137   -357.20779     267.6414 
    3670      137   -704112.66 27000000   0.83036091   -357.20779           -2          137   -357.20779     267.6414 
    3680      137   -704112.66 27000000   0.83036091   -357.20779           -2          137   -357.20779     267.6414 
    3690      137   -704112.66 27000000   0.83036091   -357.20779           -2          137   -357.20779     267.6414 
    3700      138   -708289.49 27000000   0.83642194   -265.08549           -2          138   -265.08549     282.1484 
    3710      138   -708289.49 27000000   0.83642194   -265.08549           -2          138   -265.08549     282.1484 
    3720      138   -708289.49 27000000   0.83642194   -265.08549           -2          138   -265.08549     282.1484 
    3730      138   -708289.49 27000000   0.83642194   -265.08549           -2          138   -265.08549     282.1484 
    3740      138   -711839.98 27000000   0.83642194   -330.92874           -2          138   -330.92874    457.41447 
    3750      138   -711839.98 27000000   0.83642194   -330.92874           -2          138   -330.92874    457.41447 
    3760      138   -711839.98 27000000   0.83642194   -330.92874           -2          138   -330.92874    457.41447 
    3770      138   -711839.98 27000000   0.83642194   -330.92874           -2          138   -330.92874    457.41447 
    3780      138   -711839.98 27000000   0.83642194   -330.92874           -2          138   -330.92874    457.41447 
    3790      138   -711839.98 27000000   0.83642194   -330.92874           -2          138   -330.92874    457.41447 
    3800      138   -711839.98 27000000   0.83642194   -330.92874           -2          138   -330.92874    457.41447 
    3810      138   -717024.96 27000000   0.83642194   -257.53871           -2          138   -257.53871    465.76639 
    3820      138   -717024.96 27000000   0.83642194   -257.53871           -2          138   -257.53871    465.76639 
    3830      138   -717024.96 27000000   0.83642194   -257.53871           -2          138   -257.53871    465.76639 
    3840      138   -717024.96 27000000   0.83642194   -257.53871           -2          138   -257.53871    465.76639 
    3850      138   -717024.96 27000000   0.83642194   -257.53871           -2          138   -257.53871    465.76639 
    3860      138   -717559.63 27000000   0.83642194   -270.82623           -2          138   -270.82623    455.57613 
    3870      138   -717559.63 27000000   0.83642194   -270.82623           -2          138   -270.82623    455.57613 
    3880      138   -718301.19 27000000   0.83642194   -249.60887           -2          138   -249.60887    453.32404 
    3890      138   -721652.15 27000000   0.83642194   -307.23823           -2          138   -307.23823    457.71627 
    3900      138   -721652.15 27000000   0.83642194   -307.23823           -2          138   -307.23823    457.71627 
    3910      138   -721652.15 27000000   0.83642194   -307.23823           -2          138   -307.23823    457.71627 
    3920      138   -722088.12 27000000   0.83642194   -282.50382           -2          138   -282.50382    454.02541 
    3930      138    -722730.1 27000000   0.83642194   -343.30908           -2          138   -343.30908    442.94473 
    3940      138    -722730.1 27000000   0.83642194   -343.30908           -2          138   -343.30908    442.94473 
    3950      138   -723071.53 27000000   0.83642194   -357.39725           -2          138   -357.39725    402.13262 
    3960      138   -723071.53 27000000   0.83642194   -357.39725           -2          138   -357.39725    402.13262 
    3970      138   -723071.53 27000000   0.83642194   -357.39725           -2          138   -357.39725    402.13262 
    3980      138   -723071.53 27000000   0.83642194   -357.39725           -2          138   -357.39725    402.13262 
    3990      138   -723071.53 27000000   0.83642194   -357.39725           -2          138   -357.39725    402.13262 
    4000      138   -723071.53 27000000   0.83642194   -357.39725           -2          138   -357.39725    402.13262 
    4010      138   -723071.53 27000000   0.83642194   -357.39725           -2          138   -357.39725    402.13262 
    4020      138   -723071.53 27000000   0.83642194   -357.39725           -2          138   -357.39725    402.13262 
    4030      138   -723071.53 27000000   0.83642194   -357.39725           -2          138   -357.39725    402.13262 
    4040      138   -723071.53 27000000   0.83642194   -357.39725           -2          138   -357.39725    402.13262 
    4050      138   -723071.53 27000000   0.83642194   -357.39725           -2          138   -357.39725    402.13262 
    4060      138   -726850.81 27000000   0.83642194   -330.92023           -2          138   -330.92023    425.66125 
    4070      138   -726850.81 27000000   0.83642194   -330.92023           -2          138   -330.92023    425.66125 
    4080      138   -726850.81 27000000   0.83642194   -330.92023           -2          138   -330.92023    425.66125 
    4090      138   -726850.81 27000000   0.83642194   -330.92023           -2          138   -330.92023    425.66125 
    4100      138    -727307.7 27000000   0.83642194   -343.24623           -2          138   -343.24623    414.93347 
    4110      138    -727307.7 27000000   0.83642194   -343.24623           -2          138   -343.24623    414.93347 
    4120      138    -727307.7 27000000   0.83642194   -343.24623           -2          138   -343.24623    414.93347 
    4130      138    -727307.7 27000000   0.83642194   -343.24623           -2          138   -343.24623    414.93347 
    4140      138    -727307.7 27000000   0.83642194   -343.24623           -2          138   -343.24623    414.93347 
    4150      138   -728889.04 27000000   0.83642194   -367.90502           -2          138   -367.90502    454.67547 
    4160      138   -728889.04 27000000   0.83642194   -367.90502           -2          138   -367.90502    454.67547 
    4170      138   -731137.61 27000000   0.83642194   -599.50142           -2          138   -599.50142    514.17073 
    4180      138   -731137.61 27000000   0.83642194   -599.50142           -2          138   -599.50142    514.17073 
    4190      138   -731137.61 27000000   0.83642194   -599.50142           -2          138   -599.50142    514.17073 
    4200      138   -731137.61 27000000   0.83642194   -599.50142           -2          138   -599.50142    514.17073 
    4210      138   -731137.61 27000000   0.83642194   -599.50142           -2          138   -599.50142    514.17073 
    4220      138    -734482.9 27000000   0.83642194   -559.37345           -2          138   -559.37345    511.76983 
    4230      138    -734482.9 27000000   0.83642194   -559.37345           -2          138   -559.37345    511.76983 
    4240      139   -740342.71 27000000   0.84248297   -302.38941           -2          139   -302.38941    538.79586 
    4250      139   -740840.13 27000000   0.84248297   -213.80896           -2          139   -213.80896    525.00448 
    4260      140    -743806.6 27000000     0.848544   -245.00789           -2          140   -245.00789    528.33194 
    4270      140    -743806.6 27000000     0.848544   -245.00789           -2          140   -245.00789    528.33194 
    4280      140   -745003.38 27000000     0.848544   -404.21359           -2          140   -404.21359     450.6558 
    4290      140   -745483.75 27000000     0.848544   -413.21115           -2          140   -413.21115    460.84401 
    4300      140   -745483.75 27000000     0.848544   -413.21115           -2          140   -413.21115    460.84401 
    4310      140   -745483.75 27000000     0.848544   -413.21115           -2          140   -413.21115    460.84401 
    4320      140    -748351.6 27000000     0.848544   -434.95973           -2          140   -434.95973    507.43253 
    4330      140   -748362.09 27000000     0.848544   -425.82154           -2          140   -425.82154    503.80687 
    4340      140   -748362.09 27000000     0.848544   -425.82154           -2          140   -425.82154    503.80687 
    4350      141   -750612.86 27000000   0.85460503   -53.849843           -2          141   -53.849843    315.68348 
    4360      141   -750612.86 27000000   0.85460503   -53.849843           -2          141   -53.849843    315.68348 
    4370      141   -750612.86 27000000   0.85460503   -53.849843           -2          141   -53.849843    315.68348 
    4380      141   -750612.86 27000000   0.85460503   -53.849843           -2          141   -53.849843    315.68348 
    4390      141   -751309.49 27000000   0.85460503   -51.176493           -2          141   -51.176493    315.62963 
    4400      141   -751309.49 27000000   0.85460503   -51.176493           -2          141   -51.176493    315.62963 
    4410      141   -751309.49 27000000   0.85460503   -51.176493           -2          141   -51.176493    315.62963 
    4420      141   -751309.49 27000000   0.85460503   -51.176493           -2          141   -51.176493    315.62963 
    4430      141   -751317.89 27000000   0.85460503   -49.401834           -2          141   -49.401834    323.99235 
    4440      141   -751317.89 27000000   0.85460503   -49.401834           -2          141   -49.401834    323.99235 
    4450      141   -751317.89 27000000   0.85460503   -49.401834           -2          141   -49.401834    323.99235 
    4460      141   -752437.36 27000000   0.85460503    23.152426           -2          141    23.152426    324.56796 
    4470      141   -752437.36 27000000   0.85460503    23.152426           -2          141    23.152426    324.56796 
    4480      141   -752437.36 27000000   0.85460503    23.152426           -2          141    23.152426    324.56796 
    4490      141   -752437.36 27000000   0.85460503    23.152426           -2          141    23.152426    324.56796 
    4500      141   -753128.54 27000000   0.85460503   -76.861402           -2          141   -76.861402    341.80402 
    4510      141   -753128.54 27000000   0.85460503   -76.861402           -2          141   -76.861402    341.80402 
    4520      141   -755802.05 27000000   0.85460503   -115.97322           -2          141   -115.97322    347.62753 
    4530      141   -757161.11 27000000   0.85460503   -40.828335           -2          141   -40.828335    300.79488 
    4540      141   -759492.51 27000000   0.85460503    108.67603           -2          141    108.67603    298.14248 
    4550      141   -759492.51 27000000   0.85460503    108.67603           -2          141    108.67603    298.14248 
    4560      141   -759492.51 27000000   0.85460503    108.67603           -2          141    108.67603    298.14248 
    4570      141   -759492.51 27000000   0.85460503    108.67603           -2          141    108.67603    298.14248 
    4580      141   -759492.51 27000000   0.85460503    108.67603           -2          141    108.67603    298.14248 
    4590      141   -759492.51 27000000   0.85460503    108.67603           -2          141    108.67603    298.14248 
    4600      141   -760675.36 27000000   0.85460503    100.07349           -2          141    100.07349     290.5553 
    4610      142   -770130.69 27000000   0.86066606    31.689248           -2          142    31.689248    276.83589 
    4620      142   -770130.69 27000000   0.86066606    31.689248           -2          142    31.689248    276.83589 
    4630      142   -770130.69 27000000   0.86066606    31.689248           -2          142    31.689248    276.83589 
    4640      142   -770130.69 27000000   0.86066606    31.689248           -2          142    31.689248    276.83589 
    4650      142   -770130.69 27000000   0.86066606    31.689248           -2          142    31.689248    276.83589 
    4660      142   -770130.69 27000000   0.86066606    31.689248           -2          142    31.689248    276.83589 
    4670      142   -770565.12 27000000   0.86066606    30.348788           -2          142    30.348788    277.19494 
    4680      142   -770565.12 27000000   0.86066606    30.348788           -2          142    30.348788    277.19494 
    4690      142   -771350.03 27000000   0.86066606     89.97578           -2          142     89.97578    234.20095 
    4700      142   -771350.03 27000000   0.86066606     89.97578           -2          142     89.97578    234.20095 
    4710      142   -771350.03 27000000   0.86066606     89.97578           -2          142     89.97578    234.20095 
    4720      142   -771350.03 27000000   0.86066606     89.97578           -2          142     89.97578    234.20095 
    4730      142   -771350.03 27000000   0.86066606     89.97578           -2          142     89.97578    234.20095 
    4740      142   -771350.03 27000000   0.86066606     89.97578           -2          142     89.97578    234.20095 
    4750      143   -784739.54 27000000   0.86672708    144.38147           -2          143    144.38147    201.06141 
    4760      143   -784739.54 27000000   0.86672708    144.38147           -2          143    144.38147    201.06141 
    4770      143    -789137.7 27000000   0.86672708    60.760914           -2          143    60.760914    155.18302 
    4780      143    -789137.7 27000000   0.86672708    60.760914           -2          143    60.760914    155.18302 
    4790      143    -789137.7 27000000   0.86672708    60.760914           -2          143    60.760914    155.18302 
    4800      143    -789137.7 27000000   0.86672708    60.760914           -2          143    60.760914    155.18302 
    4810      143    -789137.7 27000000   0.86672708    60.760914           -2          143    60.760914    155.18302 
    4820      143   -792011.23 27000000   0.86672708    31.574682           -2          143    31.574682    152.54091 
    4830      143   -792011.23 27000000   0.86672708    31.574682           -2          143    31.574682    152.54091 
    4840      143   -792011.23 27000000   0.86672708    31.574682           -2          143    31.574682    152.54091 
    4850      143   -792011.23 27000000   0.86672708    31.574682           -2          143    31.574682    152.54091 
    4860      143   -792011.23 27000000   0.86672708    31.574682           -2          143    31.574682    152.54091 
    4870      143   -792011.23 27000000   0.86672708    31.574682           -2          143    31.574682    152.54091 
    4880      143   -792011.23 27000000   0.86672708    31.574682           -2          143    31.574682    152.54091 
    4890      143   -792011.23 27000000   0.86672708    31.574682           -2          143    31.574682    152.54091 
    4900      143   -792011.23 27000000   0.86672708    31.574682           -2          143    31.574682    152.54091 
    4910      143   -792011.23 27000000   0.86672708    31.574682           -2          143    31.574682    152.54091 
    4920      143   -792011.23 27000000   0.86672708    31.574682           -2          143    31.574682    152.54091 
    4930      143   -792011.23 27000000   0.86672708    31.574682           -2          143    31.574682    152.54091 
    4940      143   -792011.23 27000000   0.86672708    31.574682           -2          143    31.574682    152.54091 
    4950      143   -792011.23 27000000   0.86672708    31.574682           -2          143    31.574682    152.54091 
    4960      143   -792011.23 27000000   0.86672708    31.574682           -2          143    31.574682    152.54091 
    4970      143   -792011.23 27000000   0.86672708    31.574682           -2          143    31.574682    152.54091 
    4980      143   -792011.23 27000000   0.86672708    31.574682           -2          143    31.574682    152.54091 
    4990      143   -792011.23 27000000   0.86672708    31.574682           -2          143    31.574682    152.54091 
    5000      143   -792011.23 27000000   0.86672708    31.574682           -2          143    31.574682    152.54091 
    5010      144   -793783.88 27000000   0.87278811    319.03355           -2          144    319.03355    88.475434 
    5020      144   -794192.98 27000000   0.87278811    351.71857           -2          144    351.71857    63.471568 
    5030      144   -794192.98 27000000   0.87278811    351.71857           -2          144    351.71857    63.471568 
    5040      144   -794192.98 27000000   0.87278811    351.71857           -2          144    351.71857    63.471568 
    5050      144   -794192.98 27000000   0.87278811    351.71857           -2          144    351.71857    63.471568 
    5060      144   -794192.98 27000000   0.87278811    351.71857           -2          144    351.71857    63.471568 
    5070      145   -796807.46 27000000   0.87884914    624.24543           -2          145    624.24543    140.77846 
    5080      145   -811931.54 27000000   0.87884914    321.72871           -2          145    321.72871    276.13006 
    5090      145   -811931.54 27000000   0.87884914    321.72871           -2          145    321.72871    276.13006 
    5100      145   -811931.54 27000000   0.87884914    321.72871           -2          145    321.72871    276.13006 
    5110      145   -811931.54 27000000   0.87884914    321.72871           -2          145    321.72871    276.13006 
    5120      145   -811931.54 27000000   0.87884914    321.72871           -2          145    321.72871    276.13006 
    5130      145   -811931.54 27000000   0.87884914    321.72871           -2          145    321.72871    276.13006 
    5140      145   -811931.54 27000000   0.87884914    321.72871           -2          145    321.72871    276.13006 
    5150      145   -811931.54 27000000   0.87884914    321.72871           -2          145    321.72871    276.13006 
    5160      145   -811931.54 27000000   0.87884914    321.72871           -2          145    321.72871    276.13006 
    5170      145   -811931.54 27000000   0.87884914    321.72871           -2          145    321.72871    276.13006 
    5180      145   -812705.66 27000000   0.87884914    375.11373           -2          145    375.11373    321.69627 
    5190      145   -812769.03 27000000   0.87884914    428.49446           -2          145    428.49446    361.41665 
    5200      145   -813147.84 27000000   0.87884914    499.53527           -2          145    499.53527    348.98582 
    5210      145   -813147.84 27000000   0.87884914    499.53527           -2          145    499.53527    348.98582 
    5220      145   -813147.84 27000000   0.87884914    499.53527           -2          145    499.53527    348.98582 
    5230      145   -813147.84 27000000   0.87884914    499.53527           -2          145    499.53527    348.98582 
    5240      145   -813147.84 27000000   0.87884914    499.53527           -2          145    499.53527    348.98582 
    5250      145   -813147.84 27000000   0.87884914    499.53527           -2          145    499.53527    348.98582 
    5260      145   -813147.84 27000000   0.87884914    499.53527           -2          145    499.53527    348.98582 
    5270      145   -813147.84 27000000   0.87884914    499.53527           -2          145    499.53527    348.98582 
    5280      145   -813147.84 27000000   0.87884914    499.53527           -2          145    499.53527    348.98582 
    5290      145   -813457.03 27000000   0.87884914    497.08911           -2          145    497.08911    346.51255 
    5300      145   -813457.03 27000000   0.87884914    497.08911           -2          145    497.08911    346.51255 
    5310      145   -813457.03 27000000   0.87884914    497.08911           -2          145    497.08911    346.51255 
    5320      145   -813457.03 27000000   0.87884914    497.08911           -2          145    497.08911    346.51255 
    5330      145   -813457.03 27000000   0.87884914    497.08911           -2          145    497.08911    346.51255 
    5340      146   -820214.82 27000000   0.88491017    495.09145           -2          146    495.09145    336.98626 
    5350      146   -820214.82 27000000   0.88491017    495.09145           -2          146    495.09145    336.98626 
    5360      146   -820214.82 27000000   0.88491017    495.09145           -2          146    495.09145    336.98626 
    5370      146   -820214.82 27000000   0.88491017    495.09145           -2          146    495.09145    336.98626 
    5380      146   -821287.89 27000000   0.88491017    418.35548           -2          146    418.35548    342.86822 
    5390      146   -823209.83 27000000   0.88491017    397.97055           -2          146    397.97055    341.61053 
    5400      146   -823209.83 27000000   0.88491017    397.97055           -2          146    397.97055    341.61053 
    5410      146   -823209.83 27000000   0.88491017    397.97055           -2          146    397.97055    341.61053 
    5420      146   -824255.32 27000000   0.88491017    618.76471           -2          146    618.76471    269.63403 
    5430      146   -824255.32 27000000   0.88491017    618.76471           -2          146    618.76471    269.63403 
    5440      146   -824255.32 27000000   0.88491017    618.76471           -2          146    618.76471    269.63403 
    5450      147    -830329.3 27000000    0.8909712    843.10793           -2          147    843.10793    159.33275 
    5460      148   -840451.04 27000000   0.89703223    788.11914           -2          148    788.11914    162.91895 
    5470      148   -840451.04 27000000   0.89703223    788.11914           -2          148    788.11914    162.91895 
    5480      148   -840451.04 27000000   0.89703223    788.11914           -2          148    788.11914    162.91895 
    5490      148   -840451.04 27000000   0.89703223    788.11914           -2          148    788.11914    162.91895 
    5500      148   -840451.04 27000000   0.89703223    788.11914           -2          148    788.11914    162.91895 
    5510      148   -840451.04 27000000   0.89703223    788.11914           -2          148    788.11914    162.91895 
    5520      148   -840451.04 27000000   0.89703223    788.11914           -2          148    788.11914    162.91895 
    5530      148   -840451.04 27000000   0.89703223    788.11914           -2          148    788.11914    162.91895 
    5540      148   -840451.04 27000000   0.89703223    788.11914           -2          148    788.11914    162.91895 
    5550      148   -840451.04 27000000   0.89703223    788.11914           -2          148    788.11914    162.91895 
    5560      148   -840451.04 27000000   0.89703223    788.11914           -2          148    788.11914    162.91895 
    5570      148    -840863.8 27000000   0.89703223    772.52058           -2          148    772.52058    173.40628 
    5580      148    -840863.8 27000000   0.89703223    772.52058           -2          148    772.52058    173.40628 
    5590      148      -841820 27000000   0.89703223    688.16188           -2          148    688.16188    189.03858 
    5600      148      -841820 27000000   0.89703223    688.16188           -2          148    688.16188    189.03858 
    5610      148      -841820 27000000   0.89703223    688.16188           -2          148    688.16188    189.03858 
    5620      148      -841820 27000000   0.89703223    688.16188           -2          148    688.16188    189.03858 
    5630      148      -841820 27000000   0.89703223    688.16188           -2          148    688.16188    189.03858 
    5640      148      -841820 27000000   0.89703223    688.16188           -2          148    688.16188    189.03858 
    5650      148      -841820 27000000   0.89703223    688.16188           -2          148    688.16188    189.03858 
    5660      148      -841820 27000000   0.89703223    688.16188           -2          148    688.16188    189.03858 
    5670      148      -841820 27000000   0.89703223    688.16188           -2          148    688.16188    189.03858 
    5680      148      -841820 27000000   0.89703223    688.16188           -2          148    688.16188    189.03858 
    5690      148      -841820 27000000   0.89703223    688.16188           -2          148    688.16188    189.03858 
    5700      149   -846606.01 27000000   0.90309326    992.13483           -2          149    992.13483    51.891902 
    5710      149   -846606.01 27000000   0.90309326    992.13483           -2          149    992.13483    51.891902 
    5720      149   -846606.01 27000000   0.90309326    992.13483           -2          149    992.13483    51.891902 
    5730      149   -846606.01 27000000   0.90309326    992.13483           -2          149    992.13483    51.891902 
    5740      149   -846606.01 27000000   0.90309326    992.13483           -2          149    992.13483    51.891902 
    5750      149   -846606.01 27000000   0.90309326    992.13483           -2          149    992.13483    51.891902 
    5760      149   -846606.01 27000000   0.90309326    992.13483           -2          149    992.13483    51.891902 
    5770      149   -846606.01 27000000   0.90309326    992.13483           -2          149    992.13483    51.891902 
    5780      149   -846606.01 27000000   0.90309326    992.13483           -2          149    992.13483    51.891902 
    5790      149   -846606.01 27000000   0.90309326    992.13483           -2          149    992.13483    51.891902 
    5800      149   -846606.01 27000000   0.90309326    992.13483           -2          149    992.13483    51.891902 
    5810      149   -846606.01 27000000   0.90309326    992.13483           -2          149    992.13483    51.891902 
    5820      149   -846606.01 27000000   0.90309326    992.13483           -2          149    992.13483    51.891902 
    5830      149   -846606.01 27000000   0.90309326    992.13483           -2          149    992.13483    51.891902 
    5840      149   -846606.01 27000000   0.90309326    992.13483           -2          149    992.13483    51.891902 
    5850      149   -846606.01 27000000   0.90309326    992.13483           -2          149    992.13483    51.891902 
    5860      149   -846606.01 27000000   0.90309326    992.13483           -2          149    992.13483    51.891902 
    5870      149   -846606.01 27000000   0.90309326    992.13483           -2          149    992.13483    51.891902 
    5880      149   -846606.01 27000000   0.90309326    992.13483           -2          149    992.13483    51.891902 
    5890      149   -846606.01 27000000   0.90309326    992.13483           -2          149    992.13483    51.891902 
    5900      149   -846606.01 27000000   0.90309326    992.13483           -2          149    992.13483    51.891902 
    5910      149   -846606.01 27000000   0.90309326    992.13483           -2          149    992.13483    51.891902 
    5920      149   -846606.01 27000000   0.90309326    992.13483           -2          149    992.13483    51.891902 
    5930      149   -847140.28 27000000   0.90309326    987.05683           -2          149    987.05683   -30.898765 
    5940      149   -847140.28 27000000   0.90309326    987.05683           -2          149    987.05683   -30.898765 
    5950      149   -847140.28 27000000   0.90309326    987.05683           -2          149    987.05683   -30.898765 
    5960      149   -847140.28 27000000   0.90309326    987.05683           -2          149    987.05683   -30.898765 
    5970      149   -847140.28 27000000   0.90309326    987.05683           -2          149    987.05683   -30.898765 
    5980      149   -847140.28 27000000   0.90309326    987.05683           -2          149    987.05683   -30.898765 
    5990      149   -847140.28 27000000   0.90309326    987.05683           -2          149    987.05683   -30.898765 
    6000      149   -847140.28 27000000   0.90309326    987.05683           -2          149    987.05683   -30.898765 
    6010      149   -853125.13 27000000   0.90309326    989.94288           -2          149    989.94288   -4.4400985 
    6020      150   -860874.27 27000000   0.90915428    1069.2252           -2          150    1069.2252   -58.226868 
    6030      150   -860874.27 27000000   0.90915428    1069.2252           -2          150    1069.2252   -58.226868 
    6040      150   -860874.27 27000000   0.90915428    1069.2252           -2          150    1069.2252   -58.226868 
    6050      150   -860874.27 27000000   0.90915428    1069.2252           -2          150    1069.2252   -58.226868 
    6060      150   -860874.27 27000000   0.90915428    1069.2252           -2          150    1069.2252   -58.226868 
    6070      150   -860874.27 27000000   0.90915428    1069.2252           -2          150    1069.2252   -58.226868 
    6080      150   -860874.27 27000000   0.90915428    1069.2252           -2          150    1069.2252   -58.226868 
    6090      150   -860874.27 27000000   0.90915428    1069.2252           -2          150    1069.2252   -58.226868 
    6100      150   -860920.16 27000000   0.90915428    1079.9679           -2          150    1079.9679   -52.962139 
    6110      150   -860920.16 27000000   0.90915428    1079.9679           -2          150    1079.9679   -52.962139 
    6120      150   -860920.16 27000000   0.90915428    1079.9679           -2          150    1079.9679   -52.962139 
    6130      150   -864785.79 27000000   0.90915428    763.73247           -2          150    763.73247    64.881666 
    6140      150   -864785.79 27000000   0.90915428    763.73247           -2          150    763.73247    64.881666 
    6150      150   -864785.79 27000000   0.90915428    763.73247           -2          150    763.73247    64.881666 
    6160      150   -864785.79 27000000   0.90915428    763.73247           -2          150    763.73247    64.881666 
    6170      150   -864785.79 27000000   0.90915428    763.73247           -2          150    763.73247    64.881666 
    6180      150   -866102.95 27000000   0.90915428     738.3931           -2          150     738.3931    74.639774 
    6190      150   -866102.95 27000000   0.90915428     738.3931           -2          150     738.3931    74.639774 
    6200      150   -866102.95 27000000   0.90915428     738.3931           -2          150     738.3931    74.639774 
    6210      150   -866102.95 27000000   0.90915428     738.3931           -2          150     738.3931    74.639774 
    6220      150   -866102.95 27000000   0.90915428     738.3931           -2          150     738.3931    74.639774 
    6230      150   -866102.95 27000000   0.90915428     738.3931           -2          150     738.3931    74.639774 
    6240      150   -866139.72 27000000   0.90915428    725.40598           -2          150    725.40598     343.4011 
    6250      150   -866139.72 27000000   0.90915428    725.40598           -2          150    725.40598     343.4011 
    6260      150   -866139.72 27000000   0.90915428    725.40598           -2          150    725.40598     343.4011 
    6270      150   -866139.72 27000000   0.90915428    725.40598           -2          150    725.40598     343.4011 
    6280      150   -866139.72 27000000   0.90915428    725.40598           -2          150    725.40598     343.4011 
    6290      150   -866139.72 27000000   0.90915428    725.40598           -2          150    725.40598     343.4011 
    6300      150   -866139.72 27000000   0.90915428    725.40598           -2          150    725.40598     343.4011 
    6310      150   -866139.72 27000000   0.90915428    725.40598           -2          150    725.40598     343.4011 
    6320      150   -866947.53 27000000   0.90915428    562.20444           -2          150    562.20444    398.62941 
    6330      150   -866947.53 27000000   0.90915428    562.20444           -2          150    562.20444    398.62941 
    6340      150   -866947.53 27000000   0.90915428    562.20444           -2          150    562.20444    398.62941 
    6350      150   -866947.53 27000000   0.90915428    562.20444           -2          150    562.20444    398.62941 
    6360      150   -866947.53 27000000   0.90915428    562.20444           -2          150    562.20444    398.62941 
    6370      150   -868277.95 27000000   0.90915428    580.43914           -2          150    580.43914    398.04385 
    6380      150   -868708.54 27000000   0.90915428    507.11923           -2          150    507.11923    387.13143 
    6390      150   -868708.54 27000000   0.90915428    507.11923           -2          150    507.11923    387.13143 
    6400      150   -868957.06 27000000   0.90915428    339.61171           -2          150    339.61171    449.71707 
    6410      150   -871055.22 27000000   0.90915428    235.07556           -2          150    235.07556    399.32482 
    6420      150   -871055.22 27000000   0.90915428    235.07556           -2          150    235.07556    399.32482 
    6430      150   -871055.22 27000000   0.90915428    235.07556           -2          150    235.07556    399.32482 
    6440      150   -871055.22 27000000   0.90915428    235.07556           -2          150    235.07556    399.32482 
    6450      150   -871055.22 27000000   0.90915428    235.07556           -2          150    235.07556    399.32482 
    6460      150    -872515.8 27000000   0.90915428    221.07552           -2          150    221.07552    360.75443 
    6470      150    -872515.8 27000000   0.90915428    221.07552           -2          150    221.07552    360.75443 
    6480      150   -873668.77 27000000   0.90915428    225.47689           -2          150    225.47689    368.82112 
    6490      150   -874941.49 27000000   0.90915428    217.64447           -2          150    217.64447    314.15082 
    6500      150   -879037.41 27000000   0.90915428    -36.75683           -2          150    -36.75683    125.21914 
    6510      150   -879581.16 27000000   0.90915428   -28.192038           -2          150   -28.192038    93.420556 
[...]
    8440      152   -944420.64 27000000   0.92127634   -589.67243           -2          152   -589.67243   -249.79079 
    8450      152   -944420.64 27000000   0.92127634   -589.67243           -2          152   -589.67243   -249.79079 
    8460      152   -944420.64 27000000   0.92127634   -589.67243           -2          152   -589.67243   -249.79079 
    8470      152   -944420.64 27000000   0.92127634   -589.67243           -2          152   -589.67243   -249.79079 
    8480      152   -945563.55 27000000   0.92127634   -552.54759           -2          152   -552.54759   -233.51292 
    8490      152   -945563.55 27000000   0.92127634   -552.54759           -2          152   -552.54759   -233.51292 
    8500      152   -945563.55 27000000   0.92127634   -552.54759           -2          152   -552.54759   -233.51292 
    8510      152   -945563.55 27000000   0.92127634   -552.54759           -2          152   -552.54759   -233.51292 
    8520      152   -945563.55 27000000   0.92127634   -552.54759           -2          152   -552.54759   -233.51292 
    8530      152   -945563.55 27000000   0.92127634   -552.54759           -2          152   -552.54759   -233.51292 
    8540      152   -945563.55 27000000   0.92127634   -552.54759           -2          152   -552.54759   -233.51292 
    8550      152   -945563.55 27000000   0.92127634   -552.54759           -2          152   -552.54759   -233.51292 
    8560      152   -945563.55 27000000   0.92127634   -552.54759           -2          152   -552.54759   -233.51292 
    8570      152   -945563.55 27000000   0.92127634   -552.54759           -2          152   -552.54759   -233.51292 
    8580      152   -945563.55 27000000   0.92127634   -552.54759           -2          152   -552.54759   -233.51292 
    8590      152   -945563.55 27000000   0.92127634   -552.54759           -2          152   -552.54759   -233.51292 
    8600      152   -945563.55 27000000   0.92127634   -552.54759           -2          152   -552.54759   -233.51292 
    8610      152   -945563.55 27000000   0.92127634   -552.54759           -2          152   -552.54759   -233.51292 
    8620      152   -945563.55 27000000   0.92127634   -552.54759           -2          152   -552.54759   -233.51292 
    8630      152   -945563.55 27000000   0.92127634   -552.54759           -2          152   -552.54759   -233.51292 
    8640      152   -945563.55 27000000   0.92127634   -552.54759           -2          152   -552.54759   -233.51292 
    8650      152   -945563.55 27000000   0.92127634   -552.54759           -2          152   -552.54759   -233.51292 
    8660      152   -945563.55 27000000   0.92127634   -552.54759           -2          152   -552.54759   -233.51292 
    8670      152   -945563.55 27000000   0.92127634   -552.54759           -2          152   -552.54759   -233.51292 
    8680      152   -945563.55 27000000   0.92127634   -552.54759           -2          152   -552.54759   -233.51292 
    8690      152   -947157.98 27000000   0.92127634   -740.61183           -2          152   -740.61183   -190.00149 
    8700      152   -947157.98 27000000   0.92127634   -740.61183           -2          152   -740.61183   -190.00149 
    8710      152   -947157.98 27000000   0.92127634   -740.61183           -2          152   -740.61183   -190.00149 
    8720      152   -947157.98 27000000   0.92127634   -740.61183           -2          152   -740.61183   -190.00149 
    8730      152   -947157.98 27000000   0.92127634   -740.61183           -2          152   -740.61183   -190.00149 
    8740      152   -947157.98 27000000   0.92127634   -740.61183           -2          152   -740.61183   -190.00149 
    8750      152   -947157.98 27000000   0.92127634   -740.61183           -2          152   -740.61183   -190.00149 
    8760      152   -947157.98 27000000   0.92127634   -740.61183           -2          152   -740.61183   -190.00149 
    8770      152   -947157.98 27000000   0.92127634   -740.61183           -2          152   -740.61183   -190.00149 
    8780      152   -947157.98 27000000   0.92127634   -740.61183           -2          152   -740.61183   -190.00149 
    8790      152   -947157.98 27000000   0.92127634   -740.61183           -2          152   -740.61183   -190.00149 
    8800      152   -947157.98 27000000   0.92127634   -740.61183           -2          152   -740.61183   -190.00149 
    8810      152   -947157.98 27000000   0.92127634   -740.61183           -2          152   -740.61183   -190.00149 
    8820      152   -947157.98 27000000   0.92127634   -740.61183           -2          152   -740.61183   -190.00149 
    8830      152   -947157.98 27000000   0.92127634   -740.61183           -2          152   -740.61183   -190.00149 
    8840      152   -947157.98 27000000   0.92127634   -740.61183           -2          152   -740.61183   -190.00149 
    8850      152   -947157.98 27000000   0.92127634   -740.61183           -2          152   -740.61183   -190.00149 
    8860      152   -947157.98 27000000   0.92127634   -740.61183           -2          152   -740.61183   -190.00149 
    8870      152   -947157.98 27000000   0.92127634   -740.61183           -2          152   -740.61183   -190.00149 
    8880      152   -947157.98 27000000   0.92127634   -740.61183           -2          152   -740.61183   -190.00149 
    8890      152   -947157.98 27000000   0.92127634   -740.61183           -2          152   -740.61183   -190.00149 
    8900      152   -947157.98 27000000   0.92127634   -740.61183           -2          152   -740.61183   -190.00149 
    8910      152   -947157.98 27000000   0.92127634   -740.61183           -2          152   -740.61183   -190.00149 
    8920      152   -947157.98 27000000   0.92127634   -740.61183           -2          152   -740.61183   -190.00149 
    8930      152   -947157.98 27000000   0.92127634   -740.61183           -2          152   -740.61183   -190.00149 
    8940      152   -947157.98 27000000   0.92127634   -740.61183           -2          152   -740.61183   -190.00149 
    8950      152   -947157.98 27000000   0.92127634   -740.61183           -2          152   -740.61183   -190.00149 
    8960      152   -947157.98 27000000   0.92127634   -740.61183           -2          152   -740.61183   -190.00149 
    8970      152   -947157.98 27000000   0.92127634   -740.61183           -2          152   -740.61183   -190.00149 
    8980      152   -947157.98 27000000   0.92127634   -740.61183           -2          152   -740.61183   -190.00149 
    8990      152   -947157.98 27000000   0.92127634   -740.61183           -2          152   -740.61183   -190.00149 
    9000      152   -947157.98 27000000   0.92127634   -740.61183           -2          152   -740.61183   -190.00149 
    9010      152   -947157.98 27000000   0.92127634   -740.61183           -2          152   -740.61183   -190.00149 
    9020      152   -948076.12 27000000   0.92127634   -727.07612           -2          152   -727.07612   -172.17744 
    9030      152   -948076.12 27000000   0.92127634   -727.07612           -2          152   -727.07612   -172.17744 
    9040      152   -948076.12 27000000   0.92127634   -727.07612           -2          152   -727.07612   -172.17744 
    9050      152   -948076.12 27000000   0.92127634   -727.07612           -2          152   -727.07612   -172.17744 
    9060      152   -948076.12 27000000   0.92127634   -727.07612           -2          152   -727.07612   -172.17744 
    9070      152   -948282.08 27000000   0.92127634   -640.12931           -2          152   -640.12931   -197.47211 
    9080      152   -948282.08 27000000   0.92127634   -640.12931           -2          152   -640.12931   -197.47211 
    9090      152   -948282.08 27000000   0.92127634   -640.12931           -2          152   -640.12931   -197.47211 
    9100      152   -948282.08 27000000   0.92127634   -640.12931           -2          152   -640.12931   -197.47211 
    9110      152   -948282.08 27000000   0.92127634   -640.12931           -2          152   -640.12931   -197.47211 
    9120      152   -948282.08 27000000   0.92127634   -640.12931           -2          152   -640.12931   -197.47211 
    9130      152    -948512.7 27000000   0.92127634   -629.51876           -2          152   -629.51876    -185.2659 
    9140      152    -948512.7 27000000   0.92127634   -629.51876           -2          152   -629.51876    -185.2659 
    9150      152    -948512.7 27000000   0.92127634   -629.51876           -2          152   -629.51876    -185.2659 
    9160      152    -948512.7 27000000   0.92127634   -629.51876           -2          152   -629.51876    -185.2659 
    9170      152    -948512.7 27000000   0.92127634   -629.51876           -2          152   -629.51876    -185.2659 
    9180      152    -948512.7 27000000   0.92127634   -629.51876           -2          152   -629.51876    -185.2659 
    9190      152    -948512.7 27000000   0.92127634   -629.51876           -2          152   -629.51876    -185.2659 
    9200      152    -948512.7 27000000   0.92127634   -629.51876           -2          152   -629.51876    -185.2659 
    9210      152    -948512.7 27000000   0.92127634   -629.51876           -2          152   -629.51876    -185.2659 
    9220      152    -948512.7 27000000   0.92127634   -629.51876           -2          152   -629.51876    -185.2659 
    9230      152    -948512.7 27000000   0.92127634   -629.51876           -2          152   -629.51876    -185.2659 
    9240      152    -948512.7 27000000   0.92127634   -629.51876           -2          152   -629.51876    -185.2659 
    9250      152    -948512.7 27000000   0.92127634   -629.51876           -2          152   -629.51876    -185.2659 
    9260      152    -948512.7 27000000   0.92127634   -629.51876           -2          152   -629.51876    -185.2659 
    9270      152    -948512.7 27000000   0.92127634   -629.51876           -2          152   -629.51876    -185.2659 
    9280      152    -948512.7 27000000   0.92127634   -629.51876           -2          152   -629.51876    -185.2659 
    9290      152    -948512.7 27000000   0.92127634   -629.51876           -2          152   -629.51876    -185.2659 
    9300      152    -948512.7 27000000   0.92127634   -629.51876           -2          152   -629.51876    -185.2659 
    9310      152    -948512.7 27000000   0.92127634   -629.51876           -2          152   -629.51876    -185.2659 
    9320      152    -948512.7 27000000   0.92127634   -629.51876           -2          152   -629.51876    -185.2659 
    9330      152    -948512.7 27000000   0.92127634   -629.51876           -2          152   -629.51876    -185.2659 
    9340      152    -948512.7 27000000   0.92127634   -629.51876           -2          152   -629.51876    -185.2659 
    9350      152    -948512.7 27000000   0.92127634   -629.51876           -2          152   -629.51876    -185.2659 
    9360      152    -948512.7 27000000   0.92127634   -629.51876           -2          152   -629.51876    -185.2659 
    9370      152   -949052.36 27000000   0.92127634   -644.21283           -2          152   -644.21283   -239.74252 
    9380      152   -949052.36 27000000   0.92127634   -644.21283           -2          152   -644.21283   -239.74252 
    9390      152   -949052.36 27000000   0.92127634   -644.21283           -2          152   -644.21283   -239.74252 
    9400      152   -949052.36 27000000   0.92127634   -644.21283           -2          152   -644.21283   -239.74252 
    9410      152   -949052.36 27000000   0.92127634   -644.21283           -2          152   -644.21283   -239.74252 
    9420      152   -949052.36 27000000   0.92127634   -644.21283           -2          152   -644.21283   -239.74252 
    9430      152   -949052.36 27000000   0.92127634   -644.21283           -2          152   -644.21283   -239.74252 
    9440      152   -949054.73 27000000   0.92127634   -662.84931           -2          152   -662.84931   -239.92813 
    9450      152   -949054.73 27000000   0.92127634   -662.84931           -2          152   -662.84931   -239.92813 
    9460      152   -949054.73 27000000   0.92127634   -662.84931           -2          152   -662.84931   -239.92813 
    9470      152   -949054.73 27000000   0.92127634   -662.84931           -2          152   -662.84931   -239.92813 
    9480      152   -949054.73 27000000   0.92127634   -662.84931           -2          152   -662.84931   -239.92813 
    9490      152   -949054.73 27000000   0.92127634   -662.84931           -2          152   -662.84931   -239.92813 
    9500      152   -949054.73 27000000   0.92127634   -662.84931           -2          152   -662.84931   -239.92813 
    9510      152   -949054.73 27000000   0.92127634   -662.84931           -2          152   -662.84931   -239.92813 
    9520      152   -949054.73 27000000   0.92127634   -662.84931           -2          152   -662.84931   -239.92813 
    9530      152   -949054.73 27000000   0.92127634   -662.84931           -2          152   -662.84931   -239.92813 
    9540      152   -949054.73 27000000   0.92127634   -662.84931           -2          152   -662.84931   -239.92813 
    9550      152   -949054.73 27000000   0.92127634   -662.84931           -2          152   -662.84931   -239.92813 
    9560      152   -949054.73 27000000   0.92127634   -662.84931           -2          152   -662.84931   -239.92813 
    9570      152   -950781.37 27000000   0.92127634   -735.74804           -2          152   -735.74804   -271.56925 
    9580      152   -950781.37 27000000   0.92127634   -735.74804           -2          152   -735.74804   -271.56925 
    9590      152   -950910.53 27000000   0.92127634   -697.11094           -2          152   -697.11094   -237.25321 
    9600      152    -951961.6 27000000   0.92127634    -697.2699           -2          152    -697.2699   -229.26927 
    9610      152    -951961.6 27000000   0.92127634    -697.2699           -2          152    -697.2699   -229.26927 
    9620      152    -951961.6 27000000   0.92127634    -697.2699           -2          152    -697.2699   -229.26927 
    9630      152    -951961.6 27000000   0.92127634    -697.2699           -2          152    -697.2699   -229.26927 
    9640      152    -951961.6 27000000   0.92127634    -697.2699           -2          152    -697.2699   -229.26927 
    9650      152    -951961.6 27000000   0.92127634    -697.2699           -2          152    -697.2699   -229.26927 
    9660      152    -951961.6 27000000   0.92127634    -697.2699           -2          152    -697.2699   -229.26927 
    9670      152    -951961.6 27000000   0.92127634    -697.2699           -2          152    -697.2699   -229.26927 
    9680      152    -951961.6 27000000   0.92127634    -697.2699           -2          152    -697.2699   -229.26927 
    9690      152    -951961.6 27000000   0.92127634    -697.2699           -2          152    -697.2699   -229.26927 
    9700      152    -951961.6 27000000   0.92127634    -697.2699           -2          152    -697.2699   -229.26927 
    9710      152    -951961.6 27000000   0.92127634    -697.2699           -2          152    -697.2699   -229.26927 
    9720      152    -951961.6 27000000   0.92127634    -697.2699           -2          152    -697.2699   -229.26927 
    9730      152    -951961.6 27000000   0.92127634    -697.2699           -2          152    -697.2699   -229.26927 
    9740      152    -951961.6 27000000   0.92127634    -697.2699           -2          152    -697.2699   -229.26927 
    9750      152    -951961.6 27000000   0.92127634    -697.2699           -2          152    -697.2699   -229.26927 
    9760      152    -951961.6 27000000   0.92127634    -697.2699           -2          152    -697.2699   -229.26927 
    9770      152    -951961.6 27000000   0.92127634    -697.2699           -2          152    -697.2699   -229.26927 
    9780      152    -951961.6 27000000   0.92127634    -697.2699           -2          152    -697.2699   -229.26927 
    9790      152    -951961.6 27000000   0.92127634    -697.2699           -2          152    -697.2699   -229.26927 
    9800      152    -951961.6 27000000   0.92127634    -697.2699           -2          152    -697.2699   -229.26927 
    9810      152    -951961.6 27000000   0.92127634    -697.2699           -2          152    -697.2699   -229.26927 
    9820      152    -951961.6 27000000   0.92127634    -697.2699           -2          152    -697.2699   -229.26927 
    9830      152    -951961.6 27000000   0.92127634    -697.2699           -2          152    -697.2699   -229.26927 
    9840      152    -951961.6 27000000   0.92127634    -697.2699           -2          152    -697.2699   -229.26927 
    9850      152    -951961.6 27000000   0.92127634    -697.2699           -2          152    -697.2699   -229.26927 
    9860      152    -951961.6 27000000   0.92127634    -697.2699           -2          152    -697.2699   -229.26927 
    9870      152    -951961.6 27000000   0.92127634    -697.2699           -2          152    -697.2699   -229.26927 
    9880      152    -951961.6 27000000   0.92127634    -697.2699           -2          152    -697.2699   -229.26927 
    9890      152    -951961.6 27000000   0.92127634    -697.2699           -2          152    -697.2699   -229.26927 
    9900      152    -951961.6 27000000   0.92127634    -697.2699           -2          152    -697.2699   -229.26927 
    9910      152    -951961.6 27000000   0.92127634    -697.2699           -2          152    -697.2699   -229.26927 
    9920      152    -951961.6 27000000   0.92127634    -697.2699           -2          152    -697.2699   -229.26927 
    9930      152    -951961.6 27000000   0.92127634    -697.2699           -2          152    -697.2699   -229.26927 
    9940      152   -953136.07 27000000   0.92127634   -684.01939           -2          152   -684.01939   -228.74543 
    9950      152   -953136.07 27000000   0.92127634   -684.01939           -2          152   -684.01939   -228.74543 
    9960      152   -958860.69 27000000   0.92127634   -870.24794           -2          152   -870.24794   -186.08899 
    9970      152   -958860.69 27000000   0.92127634   -870.24794           -2          152   -870.24794   -186.08899 
    9980      152   -958860.69 27000000   0.92127634   -870.24794           -2          152   -870.24794   -186.08899 
    9990      152   -958860.69 27000000   0.92127634   -870.24794           -2          152   -870.24794   -186.08899 
   10000      152   -958860.69 27000000   0.92127634   -870.24794           -2          152   -870.24794   -186.08899 
Loop time of 6.82485 on 1 procs for 10000 steps with 152 atoms

Performance: 126.596 ns/day, 0.190 hours/ns, 1465.233 timesteps/s
67.3% CPU use with 1 MPI tasks x 1 OpenMP threads

MPI task timing breakdown:
Section |  min time  |  avg time  |  max time  |%varavg| %total
---------------------------------------------------------------
Pair    | 1.9418     | 1.9418     | 1.9418     |   0.0 | 28.45
Bond    | 0          | 0          | 0          |   0.0 |  0.00
Neigh   | 1.7974     | 1.7974     | 1.7974     |   0.0 | 26.34
Comm    | 0.14805    | 0.14805    | 0.14805    |   0.0 |  2.17
Output  | 2.5364     | 2.5364     | 2.5364     |   0.0 | 37.16
Modify  | 0.35815    | 0.35815    | 0.35815    |   0.0 |  5.25
Other   |            | 0.04304    |            |       |  0.63

Nlocal:    152 ave 152 max 152 min
Histogram: 1 0 0 0 0 0 0 0 0 0
Nghost:    1096 ave 1096 max 1096 min
Histogram: 1 0 0 0 0 0 0 0 0 0
Neighs:    6254 ave 6254 max 6254 min
Histogram: 1 0 0 0 0 0 0 0 0 0

Total # of neighbors = 6254
Ave neighs/atom = 41.1447
Ave special neighs/atom = 0
Neighbor list builds = 10000
Dangerous builds = 0

undump		1



write_data	mono.dat
write_restart	mono.rest



unfix		2



#######################################
# SIMULATION DONE
print "All done"
All done
Total wall time: 0:00:06
