ITEM: TIMESTEP
128200
ITEM: NUMBER OF ATOMS
100
ITEM: BOX BOUNDS pp pp pp
0.0000000000000000e+00 4.3679023236814940e+00
0.0000000000000000e+00 4.3679023236814940e+00
0.0000000000000000e+00 4.3679023236814940e+00
ITEM: ATOMS id type x y z 
1 1 0.695161 2.67097 0.369992 
2 1 1.64035 3.83735 3.11483 
3 1 2.23459 2.76049 1.00006 
4 1 0.494159 1.50678 0.824252 
5 1 0.829509 1.71892 2.8655 
6 1 1.75118 1.95924 3.22601 
7 1 3.76239 2.92116 1.38159 
8 1 2.24777 1.76171 1.31463 
9 2 2.48189 4.23903 -0.315226 
10 2 3.54475 0.35316 0.87904 
11 1 1.11539 3.38028 3.77269 
12 1 2.62464 -0.389483 0.444689 
13 1 3.98404 2.01364 3.244 
14 1 0.15358 2.3934 2.24448 
15 1 3.57159 2.66611 2.47787 
16 1 0.910839 0.648148 0.760625 
17 1 4.84196 2.63198 3.61077 
18 1 -0.0279016 3.77517 3.86337 
19 2 0.0205934 4.57136 0.84176 
20 2 1.61779 2.71265 0.458331 
21 1 2.32106 4.08049 2.17045 
22 1 0.437953 2.61948 1.26505 
23 1 3.4903 2.46383 -0.219372 
24 1 4.20522 0.682011 0.0157341 
25 1 2.57255 3.88057 3.33238 
26 1 1.6254 4.2233 3.96511 
27 1 1.82556 0.256462 0.642724 
28 1 4.5534 1.17701 3.47128 
29 2 2.01032 2.37126 1.7834 
30 2 3.76994 3.7437 3.09321 
31 1 2.69105 1.50678 3.51351 
32 1 4.11358 1.93236 1.52643 
33 1 2.31445 2.31044 2.59924 
34 1 1.45992 3.56775 4.75263 
35 1 2.13792 0.737595 2.01567 
36 1 1.94598 2.98896 3.25811 
37 1 0.624379 0.26423 3.78066 
38 1 1.28839 3.08785 1.27541 
39 2 0.114173 -0.142067 2.45758 
40 2 2.72589 2.74596 1.99452 
41 1 3.19143 4.31102 2.59759 
42 1 3.24933 2.16838 0.913466 
43 1 4.34867 1.86519 -0.0341645 
44 1 1.84188 3.11948 2.14589 
45 1 1.59067 1.54623 2.23576 
46 1 0.683534 3.99047 3.07279 
47 1 0.216994 3.60295 1.08444 
48 1 0.979713 1.73304 3.80769 
49 2 0.636101 1.07568 -0.115297 
50 2 1.19242 0.483756 4.32916 
51 1 2.91556 2.50143 3.29088 
52 1 3.26724 0.319301 4.05601 
53 1 3.14767 1.38404 2.55487 
54 1 3.01397 2.03804 1.84456 
55 1 1.68065 2.50409 4.06113 
56 1 2.24191 3.27886 -0.189497 
57 1 3.81183 3.60451 2.16671 
58 1 1.15096 2.43916 2.13044 
59 2 0.920328 4.10611 1.03021 
60 2 3.97192 2.55642 0.709637 
61 1 2.04107 3.6864 1.24132 
62 1 2.98442 3.59529 1.3715 
63 1 0.000213671 3.21864 2.84946 
64 1 3.11841 3.07885 0.516962 
65 1 4.14582 0.154719 3.19885 
66 1 3.87702 4.12669 4.74869 
67 1 1.45394 0.400508 2.54818 
68 1 2.59018 0.687044 3.03837 
69 2 1.90557 0.260627 3.26828 
70 2 0.361093 3.11466 1.93181 
71 1 1.36404 2.05483 0.988497 
72 1 2.65893 0.208238 1.3114 
73 1 2.80847 3.27612 2.66094 
74 1 3.78688 0.75207 2.17549 
75 1 2.88271 0.818229 0.533896 
76 1 0.638132 4.13422 0.205853 
77 1 4.0386 0.914229 1.26965 
78 1 2.22365 0.667335 4.02916 
79 2 2.45399 1.50787 2.20195 
80 2 1.6349 1.0585 1.14851 
81 1 2.93116 1.10861 1.58407 
82 1 3.35363 3.60289 3.83369 
83 1 1.553 1.29924 4.56251 
84 1 0.992139 3.8867 2.18888 
85 1 0.710038 1.04668 1.70023 
86 1 3.6584 4.33166 1.50982 
87 1 1.45952 0.145622 1.57087 
88 1 0.541324 0.678065 2.69814 
89 2 0.584366 1.84763 1.58434 
90 2 3.95252 1.57713 0.687681 
91 1 3.44102 1.47823 -0.131861 
92 1 1.34516 0.881097 3.4638 
93 1 4.33336 1.43046 2.46776 
94 1 4.0854 3.20695 0.261281 
95 1 3.58003 0.983916 3.30465 
96 1 1.00592 3.1513 2.86986 
97 1 2.45451 1.84663 4.53192 
98 1 0.368986 0.0374421 1.64195 
99 2 1.21329 2.0239 0.146173 
100 2 3.97826 2.91765 -0.891923 
