ITEM: TIMESTEP
105900
ITEM: NUMBER OF ATOMS
100
ITEM: BOX BOUNDS pp pp pp
0.0000000000000000e+00 4.3679023236814940e+00
0.0000000000000000e+00 4.3679023236814940e+00
0.0000000000000000e+00 4.3679023236814940e+00
ITEM: ATOMS id type x y z 
1 1 3.73699 2.07259 4.00369 
2 1 3.86316 0.225611 4.51995 
3 1 2.10192 0.273912 3.01336 
4 1 0.69669 3.06762 1.94826 
5 1 2.52972 2.55615 1.67858 
6 1 3.07671 3.72111 3.2633 
7 1 4.11052 1.34969 3.49876 
8 1 1.11644 2.43448 1.32342 
9 2 -0.223891 0.922453 -0.0524815 
10 2 0.880417 3.94872 1.85135 
11 1 2.24718 0.320429 1.38892 
12 1 2.07915 3.20875 0.0777057 
13 1 0.729795 1.45378 2.0574 
14 1 1.40855 2.20827 -0.288856 
15 1 3.35301 2.70904 2.95218 
16 1 2.55051 1.66605 -0.0489581 
17 1 2.24265 0.00931758 4.18036 
18 1 4.33428 3.64824 1.83446 
19 2 0.351028 1.96853 3.79695 
20 2 0.7702 3.03671 0.167923 
21 1 0.440803 3.06195 0.995276 
22 1 1.17393 3.76486 4.22809 
23 1 2.98681 2.84924 4.05403 
24 1 2.13832 3.1644 3.53934 
25 1 0.435323 0.408357 3.95207 
26 1 0.227414 2.27662 0.257906 
27 1 2.51312 3.27034 2.42346 
28 1 3.4628 1.0579 2.87431 
29 2 0.616615 0.288868 3.20849 
30 2 2.48494 1.10939 1.42883 
31 1 3.25715 1.06377 4.18746 
32 1 1.9831 4.01599 2.1746 
33 1 2.89367 3.20418 0.676164 
34 1 2.85258 3.89532 1.55489 
35 1 1.46109 3.10051 2.74526 
36 1 2.3624 0.856023 3.7888 
37 1 3.18409 0.7572 1.25735 
38 1 2.94546 1.59294 2.07044 
39 2 2.08427 1.85299 1.67962 
40 2 -0.240057 1.36166 1.93073 
41 1 3.79779 0.162116 1.97285 
42 1 1.31912 0.511904 0.509496 
43 1 1.2846 0.394712 1.61843 
44 1 4.21607 2.91766 3.87138 
45 1 2.93043 4.3912 0.545664 
46 1 3.81814 1.86472 2.43678 
47 1 0.312859 0.573524 0.626567 
48 1 0.473232 1.39159 4.30914 
49 2 1.06362 1.98099 0.387605 
50 2 4.04533 3.03098 0.683008 
51 1 2.6643 1.84117 0.941883 
52 1 3.84446 3.93795 0.935171 
53 1 3.85908 1.38444 0.495293 
54 1 1.50132 1.27343 4.095 
55 1 0.557829 3.67232 3.44993 
56 1 1.10358 0.619239 2.646 
57 1 1.63671 3.21594 1.70877 
58 1 2.30478 1.25839 2.88044 
59 2 2.67916 3.58887 4.0938 
60 2 4.00417 0.359287 3.61874 
61 1 4.42031 0.92927 2.51286 
62 1 3.56593 1.64413 1.35564 
63 1 2.35565 0.856503 0.51712 
64 1 0.16534 3.6797 0.146129 
65 1 3.48185 3.58829 2.24964 
66 1 3.61276 2.30931 0.610357 
67 1 1.52452 2.06 3.17507 
68 1 0.850138 4.07293 0.943296 
69 2 0.602517 0.979825 1.41464 
70 2 0.597243 3.03603 2.79947 
71 1 1.37286 3.26284 0.721508 
72 1 0.280063 0.176269 1.53272 
73 1 0.47818 1.69743 1.03522 
74 1 0.781286 1.23918 3.3435 
75 1 0.171353 4.17989 2.657 
76 1 2.98022 1.80206 3.36774 
77 1 1.36489 0.354779 3.75159 
78 1 4.20614 3.19454 2.96604 
79 2 4.01415 0.684638 1.26402 
80 2 2.86852 2.4724 0.422462 
81 1 0.814501 2.7052 3.62953 
82 1 3.54083 2.91841 1.39745 
83 1 3.59006 4.49969 2.93563 
84 1 1.58435 1.36521 1.00701 
85 1 1.96537 2.35432 0.63352 
86 1 1.94824 4.01035 0.718865 
87 1 1.2741 4.06088 2.9433 
88 1 0.0708186 2.29726 1.71755 
89 2 1.888 3.90739 3.54245 
90 2 2.19291 2.41489 3.90101 
91 1 2.80906 0.243934 2.36092 
92 1 1.497 2.21928 2.14475 
93 1 0.333258 2.15922 2.87257 
94 1 1.76131 1.15734 2.11859 
95 1 3.54788 3.5861 4.44717 
96 1 3.13729 0.0371682 3.95522 
97 1 2.37503 2.27827 2.72944 
98 1 3.98389 3.86565 3.61798 
99 2 2.13486 3.30654 0.989719 
100 2 3.77062 2.72354 2.22358 
