ITEM: TIMESTEP
146800
ITEM: NUMBER OF ATOMS
100
ITEM: BOX BOUNDS pp pp pp
0.0000000000000000e+00 4.3679023236814940e+00
0.0000000000000000e+00 4.3679023236814940e+00
0.0000000000000000e+00 4.3679023236814940e+00
ITEM: ATOMS id type x y z 
1 1 2.87373 4.07213 0.599343 
2 1 2.29158 1.70684 2.68678 
3 1 0.627318 3.4291 2.56389 
4 1 4.19529 1.28124 1.85563 
5 1 -0.0252539 2.36641 3.83666 
6 1 0.148509 3.38451 3.56047 
7 1 3.6644 3.43756 0.641775 
8 1 0.658024 0.404954 1.3297 
9 2 2.84199 2.67445 3.60538 
10 2 3.35391 0.920099 3.86773 
11 1 1.31735 3.25685 0.348623 
12 1 2.16653 1.28397 1.05709 
13 1 2.53357 2.00722 1.64356 
14 1 3.3403 3.22718 1.60359 
15 1 1.30682 3.03133 1.78677 
16 1 1.53156 4.05548 1.87372 
17 1 0.64254 0.868461 3.47275 
18 1 0.0219256 3.92279 1.83466 
19 2 2.46642 2.13633 0.212886 
20 2 0.306237 4.27425 3.08051 
21 1 0.881657 3.74694 1.08208 
22 1 2.37642 2.94452 1.70061 
23 1 0.987059 2.53595 4.15026 
24 1 3.45913 0.404668 2.16704 
25 1 2.27497 3.45266 3.3789 
26 1 1.83173 2.5401 0.954254 
27 1 3.74412 0.0685759 1.17533 
28 1 1.09163 3.45684 3.5721 
29 2 3.37574 3.90456 2.23407 
30 2 1.01731 4.04701 4.2371 
31 1 2.90884 4.32284 2.86892 
32 1 3.75869 1.34954 0.854685 
33 1 4.19561 1.8365 2.77168 
34 1 0.820657 0.163098 2.39729 
35 1 1.35276 1.79272 2.75156 
36 1 3.73685 3.95827 4.08435 
37 1 1.68069 1.99466 3.66562 
38 1 3.51011 2.94435 3.23801 
39 2 3.74702 1.75787 0.160862 
40 2 0.0933754 2.10974 1.17314 
41 1 1.33716 1.01166 0.602567 
42 1 1.58214 0.650464 1.55496 
43 1 2.41509 0.78752 3.26194 
44 1 2.87999 1.28301 0.157117 
45 1 4.05695 2.92506 2.34214 
46 1 1.92387 4.28922 3.1613 
47 1 4.12667 1.29758 3.75886 
48 1 0.128468 4.20164 0.49668 
49 2 3.83004 3.09614 4.25158 
50 2 1.81771 2.39752 2.08616 
51 1 0.672941 1.18967 2.36634 
52 1 3.74795 2.10201 1.6254 
53 1 2.17396 0.566617 0.320946 
54 1 2.68175 4.10703 1.72033 
55 1 0.837199 2.52142 1.07493 
56 1 1.5838 1.93845 0.280013 
57 1 0.417075 2.24528 2.05991 
58 1 0.562382 1.50636 1.07941 
59 2 3.70027 2.03005 3.30291 
60 2 3.06084 3.63116 3.29863 
61 1 4.32592 0.564861 2.63697 
62 1 2.64686 1.65959 3.5953 
63 1 1.31249 0.0565605 0.540047 
64 1 0.292072 3.28376 0.144069 
65 1 3.28591 2.34199 4.1672 
66 1 3.07335 0.745329 1.12167 
67 1 4.05406 2.48337 0.579424 
68 1 3.07321 2.06616 0.856162 
69 2 0.494215 1.67749 3.2401 
70 2 2.00504 1.2595 4.36786 
71 1 1.69683 3.40898 2.55815 
72 1 3.59284 0.538239 0.192379 
73 1 0.133138 0.966872 0.371691 
74 1 2.02759 3.74729 1.09543 
75 1 1.53951 0.761244 2.7148 
76 1 2.77912 3.00935 0.645203 
77 1 3.19662 2.24603 2.5177 
78 1 0.148716 0.0886577 3.90672 
79 2 1.14463 0.19311 3.32336 
80 2 0.247904 1.82773 0.230263 
81 1 3.20687 1.38456 1.93383 
82 1 2.86148 0.0406618 3.93123 
83 1 0.859677 1.56965 4.09928 
84 1 2.47116 0.656331 2.26972 
85 1 1.31538 1.79845 1.6807 
86 1 3.90796 3.86285 2.92423 
87 1 1.57097 0.829639 3.69718 
88 1 4.39532 2.94552 1.34805 
89 2 1.36367 2.71069 3.06956 
90 2 2.1543 1.33833 1.89254 
91 1 2.02538 3.94491 4.26508 
92 1 0.513592 2.52889 3.06516 
93 1 3.20821 1.25634 2.95225 
94 1 2.91208 3.3741 2.52045 
95 1 2.18819 2.57626 3.00544 
96 1 3.08615 3.29357 4.12152 
97 1 2.13561 2.80374 4.09211 
98 1 3.72721 0.331194 3.45201 
99 2 0.995586 0.758046 -0.0461863 
100 2 4.3045 0.674808 1.09934 
