ITEM: TIMESTEP
104800
ITEM: NUMBER OF ATOMS
100
ITEM: BOX BOUNDS pp pp pp
0.0000000000000000e+00 4.3679023236814940e+00
0.0000000000000000e+00 4.3679023236814940e+00
0.0000000000000000e+00 4.3679023236814940e+00
ITEM: ATOMS id type x y z 
1 1 2.93223 2.47301 3.87886 
2 1 3.67443 0.130106 4.0036 
3 1 1.97483 0.960045 3.33507 
4 1 3.8724 3.74727 2.36545 
5 1 2.47739 2.46184 1.45161 
6 1 1.1716 0.0671468 3.03875 
7 1 -0.00226423 0.974901 4.10125 
8 1 0.724499 2.77746 2.17871 
9 2 1.00564 0.844863 0.716939 
10 2 2.45968 0.122797 2.32796 
11 1 3.59331 0.958988 1.40466 
12 1 2.28908 2.71202 0.217827 
13 1 0.843831 1.85668 2.01726 
14 1 1.49376 2.14516 4.27726 
15 1 2.32316 1.76117 2.802 
16 1 2.72192 1.88137 0.46334 
17 1 2.30813 3.70894 4.11475 
18 1 0.0771284 2.7677 1.29385 
19 2 3.20582 1.90076 3.11741 
20 2 0.424377 3.47347 4.18033 
21 1 0.333818 3.60847 0.696127 
22 1 1.66932 3.00424 3.84853 
23 1 2.41651 3.19112 3.25729 
24 1 2.97734 2.54098 2.69752 
25 1 4.14172 0.979265 2.97576 
26 1 0.854022 2.82997 0.249695 
27 1 2.30768 3.62108 2.05825 
28 1 3.21005 1.08275 3.38215 
29 2 0.330973 1.93854 3.90126 
30 2 3.38301 0.239431 1.16336 
31 1 3.35899 1.16111 4.31513 
32 1 3.31176 0.287917 2.02834 
33 1 2.84701 3.49097 0.967229 
34 1 3.41501 3.025 1.84607 
35 1 1.52356 3.05443 2.70131 
36 1 2.74213 0.526363 4.00981 
37 1 2.77795 0.796412 0.791887 
38 1 3.36841 1.46531 2.39396 
39 2 2.15633 1.76799 1.17423 
40 2 4.45133 1.9524 1.51303 
41 1 4.09299 0.184845 0.597457 
42 1 1.17417 3.85752 4.41202 
43 1 1.63394 0.399141 2.07974 
44 1 4.1143 2.63136 4.17399 
45 1 2.99145 4.31804 0.360034 
46 1 3.9041 1.74087 3.75218 
47 1 0.850863 0.572395 -0.0656728 
48 1 0.659694 1.45083 0.321991 
49 2 1.39528 1.52995 1.29083 
50 2 4.05635 3.09753 0.733554 
51 1 3.56895 2.04635 1.54151 
52 1 3.80408 3.82399 1.32319 
53 1 4.08824 2.03381 0.661435 
54 1 1.9217 1.13819 0.138982 
55 1 0.832806 3.55788 3.47335 
56 1 -0.0734184 1.41565 2.11033 
57 1 1.16314 3.24447 1.44008 
58 1 0.982464 1.13949 2.68848 
59 2 3.0322 3.14894 0.0214994 
60 2 4.04506 3.49028 3.70006 
61 1 3.45259 0.120118 2.97648 
62 1 0.216547 1.14634 1.13941 
63 1 1.7837 0.162647 0.595174 
64 1 0.191929 4.26375 3.9592 
65 1 3.05834 3.52992 2.68042 
66 1 3.37619 2.67751 0.756093 
67 1 1.39498 2.12174 2.9079 
68 1 0.957892 0.0933062 1.0837 
69 2 1.66777 4.12076 1.64399 
70 2 0.974783 3.69931 2.58506 
71 1 1.75957 3.65086 0.757082 
72 1 0.453241 3.75337 1.80902 
73 1 0.949198 0.921195 1.68208 
74 1 0.997725 1.38769 3.69294 
75 1 -0.0838722 0.193968 1.75136 
76 1 2.49945 1.59476 3.89738 
77 1 1.77131 4.50585 3.90321 
78 1 0.148936 3.20441 2.88585 
79 2 3.76986 1.10696 0.588469 
80 2 2.00848 3.24994 1.45423 
81 1 0.766044 2.59627 3.70242 
82 1 0.69035 2.06527 1.04088 
83 1 2.45032 4.30006 3.22047 
84 1 1.89207 0.937597 1.12438 
85 1 1.59747 2.38888 0.918179 
86 1 2.56214 4.52874 1.43636 
87 1 0.061899 0.0195243 2.88376 
88 1 3.93923 2.33702 2.39439 
89 2 0.733414 0.408559 2.23819 
90 2 1.69309 3.84243 2.8949 
91 1 2.57231 0.907275 2.48949 
92 1 1.66106 2.54545 1.89916 
93 1 0.334175 1.85034 3.04364 
94 1 2.70553 1.37511 1.54057 
95 1 3.71786 3.61753 0.228723 
96 1 3.19855 3.77082 3.56244 
97 1 1.82949 1.56922 1.99956 
98 1 3.5979 2.88696 3.36649 
99 2 3.0555 3.87794 1.86346 
100 2 2.75553 2.01469 2.08219 
