ITEM: TIMESTEP
108900
ITEM: NUMBER OF ATOMS
100
ITEM: BOX BOUNDS pp pp pp
0.0000000000000000e+00 4.3679023236814940e+00
0.0000000000000000e+00 4.3679023236814940e+00
0.0000000000000000e+00 4.3679023236814940e+00
ITEM: ATOMS id type x y z 
1 1 0.197332 1.29694 1.4508 
2 1 3.8053 4.07414 1.09019 
3 1 2.07242 0.751725 3.45251 
4 1 1.1674 3.29837 1.62456 
5 1 2.85707 2.24456 2.34254 
6 1 2.44081 4.27351 2.03702 
7 1 1.43698 2.24441 3.62793 
8 1 1.21205 2.14737 0.337873 
9 2 4.34992 0.927962 0.770134 
10 2 1.03874 3.72975 2.4651 
11 1 2.86743 0.113828 0.663644 
12 1 2.2673 4.42891 4.20735 
13 1 0.53266 2.28771 2.0062 
14 1 0.511038 2.99978 4.0401 
15 1 3.20443 0.613907 4.05781 
16 1 0.463339 1.92403 4.01617 
17 1 2.04591 3.19308 3.89056 
18 1 4.11281 2.97012 1.28189 
19 2 4.22442 2.60398 0.0154491 
20 2 0.439335 3.82183 3.84728 
21 1 3.80826 3.27075 0.393586 
22 1 4.16894 1.4092 2.3177 
23 1 3.66235 2.06515 4.25918 
24 1 2.48904 2.10256 4.14814 
25 1 2.00595 3.96299 3.22067 
26 1 4.06899 3.42827 3.78667 
27 1 2.85288 3.40253 2.17027 
28 1 3.24215 2.2931 3.35874 
29 2 0.283374 0.3964 3.05546 
30 2 1.21422 1.67975 2.93062 
31 1 4.0541 1.2294 4.27086 
32 1 2.07423 3.27557 1.30586 
33 1 3.15589 2.97012 4.01653 
34 1 2.97893 3.47284 1.1956 
35 1 1.81475 3.52806 2.35513 
36 1 2.9228 1.4444 3.60547 
37 1 3.168 0.378568 1.68006 
38 1 1.66314 1.33239 0.945021 
39 2 2.31219 1.54538 2.21798 
40 2 3.19833 1.66513 2.80426 
41 1 3.60236 0.721751 3.19711 
42 1 0.449182 0.304357 3.96467 
43 1 1.12223 0.31742 3.12003 
44 1 2.8476 1.74172 0.76562 
45 1 1.98974 4.42193 1.10528 
46 1 3.56585 3.61288 2.89114 
47 1 0.381769 3.83876 1.88556 
48 1 0.713693 1.27396 0.293963 
49 2 4.01451 2.65319 3.47308 
50 2 0.891319 1.78464 0.997804 
51 1 4.11793 0.261256 0.316283 
52 1 3.26706 2.58125 0.800817 
53 1 0.370151 0.235191 1.0139 
54 1 2.35312 2.01571 1.52121 
55 1 1.20263 3.09926 3.15143 
56 1 1.161 1.60269 1.96489 
57 1 1.3813 3.88168 4.21652 
58 1 2.16821 1.77142 3.01833 
59 2 1.5351 0.287015 3.76427 
60 2 1.99819 0.381386 2.56572 
61 1 0.541486 1.25262 3.21648 
62 1 3.87629 2.08652 1.62772 
63 1 1.46946 0.59266 0.384585 
64 1 2.88109 4.41036 3.17957 
65 1 3.81207 3.61345 1.90522 
66 1 4.23853 1.85939 0.680817 
67 1 1.79615 2.33241 2.4728 
68 1 0.421759 3.88138 0.288794 
69 2 3.34283 4.12812 2.31143 
70 2 2.14837 2.74712 1.90347 
71 1 2.16759 2.48867 0.583534 
72 1 3.94422 0.328893 2.41486 
73 1 0.473996 2.89225 0.694611 
74 1 2.52614 1.11319 0.0758184 
75 1 0.586796 0.663677 2.34984 
76 1 2.71128 0.929705 2.71531 
77 1 1.36488 1.27578 3.88632 
78 1 0.342063 3.87391 2.94218 
79 2 0.466115 3.09309 2.39894 
80 2 3.30023 2.80339 1.72181 
81 1 0.348089 2.28499 3.15897 
82 1 3.78923 2.56777 2.55897 
83 1 1.62012 1.08846 2.62372 
84 1 1.03487 0.748956 1.46278 
85 1 3.50349 1.06372 0.713918 
86 1 1.08085 4.05236 1.11787 
87 1 1.36095 0.0867961 2.09701 
88 1 1.30566 2.3984 1.37435 
89 2 1.82395 1.63454 0.123214 
90 2 2.58577 0.832571 0.994544 
91 1 3.02831 1.44346 1.79206 
92 1 1.41805 3.17909 0.500446 
93 1 3.92794 1.68797 3.29022 
94 1 2.16357 0.914561 1.79859 
95 1 2.38434 3.52703 0.399825 
96 1 3.34503 4.01059 4.2913 
97 1 2.40692 2.85901 3.07454 
98 1 3.90875 -0.0766683 3.53903 
99 2 2.67119 3.50112 3.53743 
100 2 4.01591 0.697829 1.56604 
