ITEM: TIMESTEP
199100
ITEM: NUMBER OF ATOMS
100
ITEM: BOX BOUNDS pp pp pp
0.0000000000000000e+00 4.3679023236814940e+00
0.0000000000000000e+00 4.3679023236814940e+00
0.0000000000000000e+00 4.3679023236814940e+00
ITEM: ATOMS id type x y z 
1 1 0.502877 3.10241 3.00167 
2 1 1.12214 2.088 3.19163 
3 1 2.59907 0.790162 0.684847 
4 1 3.26873 0.769815 2.55194 
5 1 3.46143 2.46362 1.36822 
6 1 3.1293 1.72214 3.23575 
7 1 1.57484 2.73954 2.44477 
8 1 1.49712 3.74606 0.173411 
9 2 3.1526 3.15531 1.15163 
10 2 2.45378 2.82653 2.94504 
11 1 2.37011 1.18122 1.75683 
12 1 0.500347 1.75921 0.464199 
13 1 2.26571 4.11559 0.971677 
14 1 2.31105 1.0628 2.85538 
15 1 3.05546 0.509675 3.59995 
16 1 1.58361 2.01864 1.78707 
17 1 3.89739 1.6925 3.93189 
18 1 2.56848 1.96147 2.48763 
19 2 -0.205297 3.37163 0.308967 
20 2 0.908948 1.86028 1.21344 
21 1 3.27483 1.71762 0.502879 
22 1 1.56833 4.21886 3.39589 
23 1 1.13107 3.7445 2.56468 
24 1 2.40422 2.73195 1.83861 
25 1 0.375022 3.97614 3.43377 
26 1 4.03768 3.37031 1.21375 
27 1 3.2619 3.30813 0.323185 
28 1 2.34451 3.17988 3.9999 
29 2 0.557465 1.4514 2.75429 
30 2 1.68481 4.17679 1.85203 
31 1 4.32915 4.1152 0.0628479 
32 1 1.71943 0.3401 2.53 
33 1 1.29565 2.63891 0.847925 
34 1 0.303349 2.49555 1.16141 
35 1 1.64591 0.582109 1.43901 
36 1 3.99434 2.43562 0.347723 
37 1 2.11562 3.75197 2.59455 
38 1 3.99158 0.187633 2.80123 
39 2 3.81193 2.4595 3.51778 
40 2 0.206939 3.96895 1.16444 
41 1 3.41083 2.61605 2.63983 
42 1 2.50765 2.03572 1.07985 
43 1 1.12217 1.09803 2.1548 
44 1 0.726855 3.28121 4.10434 
45 1 1.59172 3.10871 3.35563 
46 1 3.93598 3.41811 2.77823 
47 1 2.08972 2.30313 0.184025 
48 1 2.17559 2.14439 3.43765 
49 2 3.22011 2.50788 0.589951 
50 2 3.33319 0.0616568 1.99156 
51 1 1.66124 3.40425 1.58804 
52 1 4.11957 3.13283 3.86395 
53 1 1.22895 2.46929 4.17594 
54 1 3.16626 3.1552 3.40673 
55 1 0.703589 0.274394 0.678628 
56 1 1.33035 0.917534 3.23672 
57 1 0.652535 3.35768 1.68817 
58 1 0.811997 4.67835 3.99381 
59 2 2.42094 0.262103 3.10362 
60 2 0.684755 2.55992 2.30826 
61 1 2.03684 0.551155 3.84657 
62 1 3.63903 4.01375 3.70357 
63 1 1.63688 0.435886 0.445508 
64 1 4.24878 0.950163 2.15459 
65 1 0.673369 3.49083 0.662292 
66 1 0.645359 1.03042 1.29191 
67 1 3.26832 3.36633 1.98291 
68 1 2.98287 2.33033 4.02382 
69 2 0.29372 3.85385 2.57917 
70 2 0.974131 1.0194 0.34324 
71 1 4.15177 1.22191 3.05158 
72 1 3.24462 -0.234586 1.21282 
73 1 0.47717 1.25933 3.8895 
74 1 4.23091 2.811 1.99674 
75 1 3.67678 1.76241 2.19248 
76 1 0.281988 2.36624 3.91247 
77 1 2.69878 1.33352 4.06236 
78 1 -0.166489 1.013 0.382118 
79 2 2.53893 3.57253 1.55848 
80 2 1.61002 1.57991 2.68423 
81 1 4.4122 2.17778 2.94025 
82 1 4.19538 0.404139 1.21668 
83 1 2.42768 4.18195 0.0115397 
84 1 3.37818 0.952658 1.3677 
85 1 4.10107 1.67264 1.25908 
86 1 0.439636 1.87041 2.06743 
87 1 1.71283 1.51472 0.883095 
88 1 2.96481 4.12929 2.84736 
89 2 1.21468 4.05443 1.00693 
90 2 2.71504 3.94204 3.68485 
91 1 0.642921 0.389194 2.84035 
92 1 4.10282 4.07147 1.89557 
93 1 2.3343 3.13755 0.77368 
94 1 2.51643 0.215436 1.87592 
95 1 4.13529 0.499323 3.87526 
96 1 3.41585 0.101498 0.248086 
97 1 1.59386 1.47953 -0.129061 
98 1 0.861024 0.129602 1.8124 
99 2 3.45252 0.99392 4.32703 
100 2 0.558877 2.60382 0.343735 
