ITEM: TIMESTEP
139600
ITEM: NUMBER OF ATOMS
100
ITEM: BOX BOUNDS pp pp pp
0.0000000000000000e+00 4.3679023236814940e+00
0.0000000000000000e+00 4.3679023236814940e+00
0.0000000000000000e+00 4.3679023236814940e+00
ITEM: ATOMS id type x y z 
1 1 3.11095 0.911064 1.28858 
2 1 0.425738 2.36409 1.19641 
3 1 1.93205 4.59967 2.15406 
4 1 2.34849 1.32043 0.948207 
5 1 0.701271 2.17389 3.561 
6 1 2.88478 0.209561 1.96696 
7 1 1.62343 4.00563 3.22557 
8 1 0.18071 0.588027 1.37753 
9 2 2.7518 1.00099 2.07286 
10 2 1.87336 3.76177 2.42937 
11 1 1.18388 1.87138 4.36603 
12 1 2.68075 1.51042 2.75981 
13 1 2.09124 2.44518 1.56049 
14 1 2.16571 3.15155 0.690269 
15 1 1.85782 0.922819 2.99945 
16 1 3.5505 1.10279 2.2359 
17 1 0.149371 1.38849 3.00099 
18 1 4.87994 3.95921 3.35211 
19 2 1.42208 2.88295 1.03639 
20 2 2.74611 0.914544 3.69112 
21 1 4.49937 3.9224 2.36225 
22 1 1.9765 1.22628 1.81578 
23 1 0.248007 2.90868 2.78565 
24 1 3.62102 2.6107 1.24496 
25 1 2.9623 2.8691 2.00436 
26 1 1.89656 3.68066 4.24275 
27 1 2.94726 1.82999 1.75141 
28 1 4.44457 0.511616 3.5325 
29 2 3.56817 3.45305 1.34003 
30 2 0.989743 2.27069 2.763 
31 1 2.90657 3.92123 3.8299 
32 1 2.20922 2.1737 0.423849 
33 1 1.75886 2.94111 2.61103 
34 1 3.43311 0.477218 3.86891 
35 1 3.50115 1.42632 3.3071 
36 1 4.30094 3.26569 3.85684 
37 1 2.84851 1.92488 3.72556 
38 1 3.97737 2.25336 3.46889 
39 2 3.74532 0.562358 2.98746 
40 2 0.672809 1.00252 4.45837 
41 1 0.00891604 0.505685 2.4176 
42 1 -0.367142 0.704932 0.404429 
43 1 3.91227 4.00278 3.27781 
44 1 1.41291 1.93319 1.03567 
45 1 3.58882 2.96282 2.91772 
46 1 0.31972 2.08644 2.36813 
47 1 3.00533 0.990551 0.287802 
48 1 3.92605 -0.305207 4.5855 
49 2 4.16342 1.26554 3.76497 
50 2 1.43075 1.79699 3.47971 
51 1 2.02464 1.41309 3.97296 
52 1 3.61951 2.59876 0.167702 
53 1 0.707567 0.319836 0.596939 
54 1 2.73534 3.85883 1.3599 
55 1 1.11161 2.67778 1.88347 
56 1 1.1526 0.931295 1.22139 
57 1 0.590718 3.59803 4.50019 
58 1 1.0544 1.56001 1.99873 
59 2 0.947949 1.30679 2.92256 
60 2 2.28299 2.03182 2.25405 
61 1 4.21102 3.24273 0.796153 
62 1 3.24024 1.8651 0.739935 
63 1 1.05912 1.07371 3.6951 
64 1 0.340537 2.50705 0.172346 
65 1 2.63343 3.08646 4.04138 
66 1 4.13088 1.66033 1.458 
67 1 -0.113858 1.64963 4.41049 
68 1 1.27137 2.82882 4.59269 
69 2 3.24867 2.1571 2.81281 
70 2 2.73123 2.88353 1.24625 
71 1 1.01949 0.173257 4.0968 
72 1 1.20503 3.0311 3.60313 
73 1 3.11845 3.46563 0.540736 
74 1 2.89965 0.347252 2.91635 
75 1 2.27463 0.332415 1.14392 
76 1 1.55229 4.07657 0.803414 
77 1 0.130713 4.04188 1.19541 
78 1 0.960409 3.54815 2.48876 
79 2 0.20774 4.61316 4.28028 
80 2 1.34126 0.858171 2.18689 
81 1 0.847082 3.4483 1.07271 
82 1 1.05304 4.66448 2.83646 
83 1 0.599406 1.48118 0.720276 
84 1 2.66087 4.36349 0.312791 
85 1 0.993397 4.30907 1.79417 
86 1 2.56969 3.51135 2.815 
87 1 2.21323 0.286647 3.87552 
88 1 1.65487 1.90025 2.77368 
89 2 2.09541 3.22319 3.36733 
90 2 3.38062 1.66029 4.25442 
91 1 1.65593 0.781153 0.259383 
92 1 1.90057 2.42585 3.89942 
93 1 4.38723 3.1098 1.77848 
94 1 1.91319 3.46374 1.68198 
95 1 3.61804 3.61893 2.13657 
96 1 3.69305 2.21188 2.20169 
97 1 2.47025 2.53246 2.99183 
98 1 3.59431 -0.0219282 1.1108 
99 2 3.21797 2.62511 3.63691 
100 2 0.240447 1.22969 2.07991 
