ITEM: TIMESTEP
185400
ITEM: NUMBER OF ATOMS
100
ITEM: BOX BOUNDS pp pp pp
0.0000000000000000e+00 4.3679023236814940e+00
0.0000000000000000e+00 4.3679023236814940e+00
0.0000000000000000e+00 4.3679023236814940e+00
ITEM: ATOMS id type x y z 
1 1 4.319 1.59052 4.25482 
2 1 0.985196 1.17424 1.74214 
3 1 1.53146 1.58991 0.857812 
4 1 3.70882 0.456715 2.07408 
5 1 2.14917 3.05022 1.33606 
6 1 3.30642 1.13557 3.85743 
7 1 0.451577 3.31243 3.172 
8 1 2.0745 2.47115 0.5199 
9 2 2.40061 0.48211 4.19909 
10 2 1.82716 2.75718 2.0163 
11 1 2.63941 4.49429 2.41552 
12 1 1.02781 2.70771 0.705472 
13 1 2.93185 2.9663 0.659255 
14 1 1.96618 1.02895 2.6314 
15 1 3.9777 0.488341 4.30345 
16 1 3.2245 2.42525 1.5094 
17 1 4.57436 2.23335 1.04227 
18 1 2.02137 3.5753 2.21305 
19 2 0.334921 0.686807 3.91383 
20 2 2.25625 1.17002 3.59082 
21 1 2.66475 1.58445 0.791489 
22 1 1.59139 4.03265 2.97116 
23 1 3.67964 2.9858 2.3195 
24 1 1.23878 3.43203 1.34218 
25 1 0.447079 1.41098 3.41211 
26 1 3.78509 3.21222 1.25276 
27 1 0.571298 2.97911 4.2375 
28 1 2.59065 0.535482 3.32128 
29 2 3.59528 1.89593 3.85312 
30 2 3.95893 4.06768 1.67313 
31 1 1.8725 3.41476 0.254283 
32 1 2.24755 0.848998 1.52641 
33 1 0.317801 3.82669 1.26262 
34 1 3.99982 1.48477 1.54423 
35 1 0.272201 3.03049 1.84565 
36 1 3.61895 2.06131 0.654879 
37 1 2.65264 2.78536 2.34131 
38 1 4.26064 3.81455 2.41101 
39 2 3.20109 1.07715 1.24394 
40 2 4.32974 2.40293 0.316749 
41 1 2.99086 1.20605 2.06608 
42 1 2.11033 2.09005 1.51401 
43 1 1.96016 2.04868 2.58394 
44 1 0.665919 0.0318228 3.34009 
45 1 2.24267 4.03837 3.67885 
46 1 3.1076 2.48368 3.2454 
47 1 1.13184 2.47721 3.18188 
48 1 1.98333 3.02467 3.06544 
49 2 2.37565 0.70968 0.723603 
50 2 4.07981 2.41391 1.70329 
51 1 0.792496 4.03845 2.38428 
52 1 3.7036 2.87285 -0.0577156 
53 1 1.27867 3.38393 3.71721 
54 1 2.86913 3.51077 3.0007 
55 1 1.16049 2.30312 1.65773 
56 1 1.20406 3.06512 2.3549 
57 1 3.76556 3.40746 3.44077 
58 1 -0.00851234 3.98203 4.05419 
59 2 0.970721 0.0750718 4.27811 
60 2 3.39396 0.850201 2.96285 
61 1 0.92517 0.685287 2.66245 
62 1 3.42951 -0.0801822 2.98897 
63 1 1.73447 0.262471 0.270931 
64 1 4.12359 0.577338 3.34605 
65 1 1.91944 2.39522 3.92215 
66 1 0.922286 3.79086 0.272904 
67 1 3.43967 2.01957 2.36902 
68 1 2.62546 3.12396 3.88973 
69 2 4.30459 4.03816 3.24915 
70 2 0.499079 1.83614 1.71056 
71 1 1.07525 0.916229 0.0614972 
72 1 0.380398 0.239429 0.508176 
73 1 1.5764 0.495601 3.61207 
74 1 0.173767 2.19889 2.38791 
75 1 2.97527 0.17309 1.40531 
76 1 4.35625 2.44691 3.42821 
77 1 2.08565 1.30681 0.065838 
78 1 2.90012 2.18955 4.206 
79 2 2.82124 3.71871 1.11419 
80 2 0.248597 0.184168 2.62023 
81 1 2.76366 1.57889 2.91072 
82 1 0.37905 0.410641 1.78008 
83 1 3.28009 4.278 3.90863 
84 1 3.09447 0.739715 0.442711 
85 1 3.82364 1.64312 3.14608 
86 1 -0.0694002 1.07664 2.48823 
87 1 2.10259 4.07104 1.23051 
88 1 3.08689 3.76424 1.9839 
89 2 3.20929 3.53813 4.39359 
90 2 1.12219 1.55747 2.49806 
91 1 1.45968 1.54793 3.47444 
92 1 3.81998 0.547809 1.12862 
93 1 3.71326 3.95021 0.550262 
94 1 2.63226 4.12715 0.326135 
95 1 1.24554 0.306598 1.20128 
96 1 0.377531 1.1196 0.986736 
97 1 0.975247 1.96158 4.45516 
98 1 1.68262 4.58473 2.10876 
99 2 3.9083 1.32693 0.71424 
100 2 0.146978 3.1136 0.754939 
