ITEM: TIMESTEP
182700
ITEM: NUMBER OF ATOMS
100
ITEM: BOX BOUNDS pp pp pp
0.0000000000000000e+00 4.3679023236814940e+00
0.0000000000000000e+00 4.3679023236814940e+00
0.0000000000000000e+00 4.3679023236814940e+00
ITEM: ATOMS id type x y z 
1 1 4.15211 1.29591 4.53727 
2 1 0.826082 0.496768 1.89757 
3 1 0.963616 1.94126 1.12644 
4 1 4.29553 1.45756 2.4228 
5 1 1.77359 3.12922 1.28922 
6 1 3.14704 1.21608 4.16627 
7 1 0.848178 3.0841 2.6804 
8 1 2.63906 1.80992 1.02019 
9 2 2.93315 0.242307 3.87856 
10 2 1.75153 1.91338 1.39077 
11 1 2.62026 0.320876 3.03544 
12 1 0.626178 2.75107 0.430223 
13 1 2.69457 2.97333 0.882951 
14 1 1.6099 0.108855 2.68812 
15 1 3.52468 4.38558 0.115773 
16 1 3.39864 2.48957 1.62622 
17 1 -0.0654555 2.47689 1.0593 
18 1 1.65575 3.55134 2.21336 
19 2 0.861515 0.985394 0.130164 
20 2 3.04795 1.99789 3.63441 
21 1 2.84226 0.703698 1.08443 
22 1 1.54257 3.4214 3.44763 
23 1 3.54761 4.01226 2.52262 
24 1 0.721317 3.28209 1.38193 
25 1 0.46243 1.72201 3.51623 
26 1 3.63162 3.32564 0.936471 
27 1 1.35377 2.50242 3.92648 
28 1 2.7254 1.30126 3.12139 
29 2 4.0221 2.80916 0.336571 
30 2 3.48504 3.5386 1.75826 
31 1 2.0964 3.04696 -0.142025 
32 1 1.6991 1.09748 1.35252 
33 1 -0.0241975 3.88299 1.31418 
34 1 3.93916 1.47075 1.44994 
35 1 4.21445 3.18395 1.92493 
36 1 3.55835 2.09841 0.586781 
37 1 2.4617 2.71457 1.95938 
38 1 4.37172 4.3635 2.92239 
39 2 3.48087 0.884601 1.7644 
40 2 0.208782 1.67552 0.88115 
41 1 2.49343 0.569191 1.98642 
42 1 2.19265 1.55297 2.08586 
43 1 1.74424 1.11553 3.03485 
44 1 0.345143 0.823825 3.83029 
45 1 2.06447 4.16151 3.78219 
46 1 3.38886 3.0357 2.55679 
47 1 1.93277 2.76034 2.89706 
48 1 2.45974 3.61976 2.72053 
49 2 1.39013 1.4483 0.55785 
50 2 3.70024 2.03158 2.34467 
51 1 0.606325 3.94912 2.16516 
52 1 0.337007 2.73389 3.85001 
53 1 1.64391 0.490734 0.395985 
54 1 2.73776 2.95646 3.48031 
55 1 0.363654 2.24016 1.98473 
56 1 1.53237 2.43507 2.03713 
57 1 4.09764 3.45515 3.24046 
58 1 0.598003 3.84421 3.81371 
59 2 1.13074 4.37393 4.48922 
60 2 2.04893 1.94152 2.81007 
61 1 0.80193 0.922493 2.88407 
62 1 3.41461 0.680903 2.58002 
63 1 2.04782 0.826271 3.92843 
64 1 3.71334 0.572207 3.66427 
65 1 1.83192 2.354 0.628589 
66 1 1.25294 3.53931 0.0887916 
67 1 3.15369 1.56775 1.95698 
68 1 3.69428 2.57244 4.00691 
69 2 0.918718 3.94719 2.9997 
70 2 0.383986 1.18258 1.65832 
71 1 1.30719 1.43976 3.83622 
72 1 0.237184 0.0932215 0.147418 
73 1 1.23989 0.194113 3.61786 
74 1 4.3375 2.58643 2.90533 
75 1 1.72019 0.0570416 1.59953 
76 1 1.23637 2.05345 2.99759 
77 1 2.1221 1.44761 0.229733 
78 1 2.75778 2.31959 0.0673966 
79 2 3.0782 4.05674 0.733355 
80 2 4.24489 0.775537 2.92428 
81 1 2.96629 2.15583 2.81472 
82 1 4.26001 0.552185 2.06965 
83 1 3.13352 3.84063 3.46551 
84 1 2.53006 0.306189 0.288521 
85 1 3.84859 1.76229 3.35452 
86 1 1.09659 1.49799 2.02186 
87 1 2.26796 3.88852 0.890085 
88 1 2.68786 3.71177 1.74312 
89 2 4.098 4.24576 3.69883 
90 2 1.63147 0.861568 2.22651 
91 1 2.17352 1.91817 3.59928 
92 1 3.4476 0.0476267 1.53436 
93 1 4.20144 3.55222 4.27132 
94 1 3.03438 3.41373 0.00306663 
95 1 0.766325 0.941152 0.949431 
96 1 4.26615 0.609422 1.08652 
97 1 0.621273 1.8003 4.47492 
98 1 0.90756 4.21209 0.873788 
99 2 3.49953 1.12408 0.558388 
100 2 0.267437 3.62136 0.610109 
