ITEM: TIMESTEP
197600
ITEM: NUMBER OF ATOMS
100
ITEM: BOX BOUNDS pp pp pp
0.0000000000000000e+00 4.3679023236814940e+00
0.0000000000000000e+00 4.3679023236814940e+00
0.0000000000000000e+00 4.3679023236814940e+00
ITEM: ATOMS id type x y z 
1 1 0.551055 3.00347 2.91738 
2 1 1.3098 2.3259 2.84768 
3 1 2.64491 0.575339 0.691852 
4 1 2.97662 0.889546 2.64507 
5 1 3.30891 2.53715 1.29758 
6 1 3.24569 1.68114 3.20702 
7 1 1.48731 3.15374 2.29212 
8 1 1.8246 3.34841 0.160533 
9 2 3.16753 3.58428 0.937198 
10 2 2.13832 2.62376 2.6473 
11 1 2.09721 1.04711 1.72573 
12 1 0.779 1.68728 0.249102 
13 1 2.32489 3.99413 1.10899 
14 1 2.23824 1.12926 3.29502 
15 1 3.23832 0.426164 3.55833 
16 1 1.62431 1.92895 1.71505 
17 1 -0.157401 1.71251 4.12935 
18 1 2.57048 1.82116 2.35318 
19 2 0.117747 3.74082 4.20108 
20 2 0.841539 1.94395 1.29245 
21 1 3.47134 1.59962 0.688215 
22 1 1.83893 4.05895 3.9202 
23 1 1.2246 3.98059 3.0733 
24 1 2.41949 2.63727 1.80398 
25 1 0.317572 3.94274 3.42884 
26 1 4.00428 3.28022 1.18984 
27 1 3.39 3.18497 0.299135 
28 1 2.33468 2.36555 4.43692 
29 2 0.184516 1.71514 2.77059 
30 2 1.23109 4.35991 2.20618 
31 1 4.01639 4.09717 0.457119 
32 1 1.75307 0.613713 2.58926 
33 1 1.42426 2.43929 0.717643 
34 1 0.520863 2.76152 1.1064 
35 1 1.48468 0.182989 1.45623 
36 1 4.19348 2.40208 0.449878 
37 1 2.09762 3.99961 2.70396 
38 1 4.08609 0.161666 2.79702 
39 2 3.45905 3.08228 3.67127 
40 2 -0.0966491 4.21098 1.36039 
41 1 2.91701 2.73559 2.8721 
42 1 2.55343 1.90255 0.980792 
43 1 0.814322 1.23298 2.16262 
44 1 0.931819 3.35859 3.88353 
45 1 1.94234 3.10404 3.32531 
46 1 3.90771 3.47178 2.96072 
47 1 2.70296 1.47523 4.36541 
48 1 2.35586 2.13724 3.39126 
49 2 3.15329 2.36974 0.489114 
50 2 3.57292 0.445164 2.14341 
51 1 1.42469 3.47047 1.27488 
52 1 4.30762 3.00329 3.84743 
53 1 1.37998 2.41965 3.99936 
54 1 2.70261 3.14958 3.955 
55 1 0.594538 0.117346 0.831913 
56 1 1.25377 1.41372 3.13407 
57 1 0.512889 3.57219 1.84478 
58 1 0.718184 0.00368852 4.23691 
59 2 2.3698 0.335853 3.05404 
60 2 1.16537 2.64321 1.77362 
61 1 1.44536 0.449394 3.52377 
62 1 3.65247 3.76907 3.89094 
63 1 1.70474 0.241451 0.399923 
64 1 4.14347 1.14059 2.11203 
65 1 0.499876 3.43105 0.464721 
66 1 0.692295 1.07946 1.19105 
67 1 3.00051 3.41853 1.90496 
68 1 3.37668 2.255 4.05384 
69 2 4.84277 3.8468 2.55689 
70 2 1.05012 0.882209 0.236803 
71 1 4.03027 1.18742 3.17025 
72 1 3.3405 -0.0163388 1.15608 
73 1 0.591673 1.01198 3.78789 
74 1 3.94978 2.92537 2.17015 
75 1 3.5793 1.96472 2.07153 
76 1 0.522241 2.16494 3.51042 
77 1 2.3828 0.539991 4.11352 
78 1 0.166952 0.876148 0.415388 
79 2 2.19053 3.55999 1.98088 
80 2 1.7047 1.71526 2.47322 
81 1 4.05868 2.37474 3.02802 
82 1 4.07994 0.684783 1.23244 
83 1 2.87913 4.07302 0.131808 
84 1 3.17131 1.02151 1.58806 
85 1 4.32991 1.80726 1.34192 
86 1 0.496569 2.2339 2.15 
87 1 1.69132 1.37739 0.825646 
88 1 3.08075 4.05009 2.75949 
89 2 1.24667 3.92216 0.484609 
90 2 2.80421 3.90784 3.64918 
91 1 0.70582 0.59561 2.84847 
92 1 3.79842 3.98552 1.98746 
93 1 2.43926 3.0413 0.853534 
94 1 2.56623 4.43801 1.96605 
95 1 4.23654 0.277828 3.95563 
96 1 3.54128 0.594272 0.194074 
97 1 1.65367 1.35461 -0.231036 
98 1 0.443677 0.264146 1.87804 
99 2 3.52201 1.17755 3.82084 
100 2 0.706592 2.60614 4.48636 
