ITEM: TIMESTEP
129100
ITEM: NUMBER OF ATOMS
100
ITEM: BOX BOUNDS pp pp pp
0.0000000000000000e+00 4.3679023236814940e+00
0.0000000000000000e+00 4.3679023236814940e+00
0.0000000000000000e+00 4.3679023236814940e+00
ITEM: ATOMS id type x y z 
1 1 0.537927 2.47862 0.572546 
2 1 1.64697 3.47617 3.48964 
3 1 2.4775 3.16098 0.468772 
4 1 0.663797 1.96458 4.0228 
5 1 0.921676 1.66706 3.14407 
6 1 2.0233 1.68323 3.05577 
7 1 3.8849 2.62299 1.48641 
8 1 2.30992 1.166 0.649417 
9 2 2.58784 4.38376 3.60149 
10 2 3.27679 0.471647 0.357067 
11 1 0.83265 4.04595 4.00112 
12 1 2.63099 4.23852 0.311334 
13 1 3.68759 2.19548 3.19698 
14 1 0.707817 2.70475 2.32955 
15 1 3.95495 2.60935 2.3849 
16 1 3.66855 3.99029 0.878333 
17 1 0.285747 2.61065 3.16766 
18 1 3.69639 3.70181 4.31797 
19 2 3.61264 4.29852 1.70215 
20 2 1.19345 3.01387 0.511597 
21 1 2.03054 3.99573 2.05793 
22 1 0.363956 2.17467 1.66941 
23 1 3.58784 2.27425 4.2673 
24 1 4.14189 0.844471 0.239322 
25 1 2.92933 3.73946 2.96236 
26 1 1.7297 0.107093 3.82782 
27 1 1.60094 1.10236 1.28551 
28 1 4.20839 1.52218 3.79216 
29 2 2.27279 2.61601 1.23298 
30 2 3.68339 3.92372 3.47103 
31 1 2.87416 2.7221 3.60979 
32 1 3.91676 1.62193 1.72481 
33 1 2.90584 2.57582 2.44822 
34 1 1.51459 0.233675 0.561267 
35 1 2.36849 0.700393 2.14442 
36 1 1.99965 2.69973 4.11937 
37 1 0.220963 4.26137 0.391776 
38 1 1.12289 2.80199 1.32773 
39 2 0.664513 4.37182 2.42301 
40 2 3.03917 2.51083 1.67262 
41 1 3.03834 -0.00836773 2.24079 
42 1 3.32342 1.28145 0.404091 
43 1 4.20515 1.68811 0.630875 
44 1 2.06914 2.81289 2.04792 
45 1 2.23357 1.76311 2.01296 
46 1 1.30139 -0.0801917 3.0048 
47 1 0.281472 3.31294 1.58 
48 1 1.56012 1.87799 3.89876 
49 2 0.401047 1.33768 0.0879753 
50 2 0.43898 0.87701 3.61721 
51 1 2.5615 3.58293 3.95933 
52 1 3.33092 0.226751 3.97161 
53 1 3.02243 1.58098 2.73891 
54 1 2.83038 2.11524 0.697607 
55 1 0.990929 2.9384 4.01285 
56 1 1.6679 3.61976 0.11922 
57 1 3.91575 4.16627 2.69131 
58 1 1.14121 1.74419 2.12978 
59 2 2.72116 3.53657 2.19327 
60 2 3.59983 2.15128 0.884101 
61 1 1.88459 3.35447 1.22156 
62 1 2.84554 3.69752 1.36963 
63 1 0.308176 3.72825 3.15597 
64 1 3.39115 2.93761 0.612943 
65 1 0.039448 4.55477 3.65436 
66 1 0.0161567 3.35243 0.656574 
67 1 1.43036 0.882544 2.55061 
68 1 2.56642 0.68051 3.13784 
69 2 2.13125 3.81872 2.905 
70 2 3.63823 3.34671 1.3553 
71 1 1.75257 2.29378 0.650993 
72 1 2.1736 0.113711 1.15916 
73 1 3.4581 3.40193 2.17533 
74 1 3.93772 0.698864 2.01998 
75 1 2.57522 0.715679 4.22347 
76 1 1.01177 3.73844 0.874048 
77 1 0.606273 0.712231 0.880552 
78 1 0.796671 0.583755 4.25471 
79 2 2.14188 2.64629 2.91148 
80 2 0.643454 1.52462 1.15301 
81 1 2.97038 1.3587 1.58763 
82 1 3.84723 3.07996 3.26176 
83 1 1.22296 1.42398 0.401468 
84 1 1.27819 3.49543 2.4683 
85 1 0.445913 1.07896 1.78806 
86 1 3.13433 0.345227 1.26213 
87 1 1.19888 4.52826 1.76777 
88 1 0.255838 0.563846 2.721 
89 2 1.72809 1.89158 1.34995 
90 2 4.28782 0.327199 1.11102 
91 1 3.25286 1.2897 3.7013 
92 1 1.46559 0.972742 3.43706 
93 1 4.38841 1.61454 2.68688 
94 1 -0.00156379 2.97485 4.11295 
95 1 3.7076 0.738668 3.0359 
96 1 1.37865 2.60077 3.0917 
97 1 2.53224 1.80713 4.17349 
98 1 0.118162 -0.087676 1.72217 
99 2 1.70077 1.13693 -0.141235 
100 2 -0.123986 3.45839 2.42798 
