ITEM: TIMESTEP
142100
ITEM: NUMBER OF ATOMS
100
ITEM: BOX BOUNDS pp pp pp
0.0000000000000000e+00 4.3679023236814940e+00
0.0000000000000000e+00 4.3679023236814940e+00
0.0000000000000000e+00 4.3679023236814940e+00
ITEM: ATOMS id type x y z 
1 1 2.92279 4.08387 0.343958 
2 1 3.37739 2.46419 1.73411 
3 1 1.77298 4.02457 2.43523 
4 1 3.59556 1.35033 0.434283 
5 1 1.19166 1.94283 3.83202 
6 1 3.73245 0.687791 1.95921 
7 1 2.19698 3.33596 4.11112 
8 1 0.44837 0.293537 1.86414 
9 2 2.63742 1.76932 0.398728 
10 2 2.42209 0.26357 0.878853 
11 1 0.656237 2.66045 4.36628 
12 1 3.00422 1.48191 1.3881 
13 1 2.41793 2.10847 2.02847 
14 1 3.21049 3.31488 1.13144 
15 1 2.01494 1.398 2.60677 
16 1 3.03516 0.71906 2.78632 
17 1 0.419027 1.21764 3.44845 
18 1 3.95263 3.2953 0.366221 
19 2 2.14225 2.61316 0.18225 
20 2 3.1276 4.46867 2.07951 
21 1 4.34177 4.04587 2.6497 
22 1 1.55866 1.70825 1.59485 
23 1 0.711931 2.55068 3.04003 
24 1 3.27632 2.20793 0.780395 
25 1 2.37533 3.273 1.891 
26 1 1.33565 3.07299 0.483219 
27 1 3.11044 0.633332 0.98189 
28 1 4.46146 0.290719 3.68275 
29 2 0.265029 -0.063169 0.971407 
30 2 1.35564 3.66727 4.166 
31 1 2.67733 3.82094 2.85426 
32 1 2.86899 2.90251 4.58626 
33 1 1.96613 3.13881 2.94786 
34 1 2.01841 0.43086 3.04778 
35 1 2.82111 1.78264 2.96083 
36 1 3.30079 3.46942 3.9125 
37 1 2.09016 1.35422 3.64239 
38 1 -0.0737336 2.1019 3.25445 
39 2 4.06437 3.82757 3.96404 
40 2 1.13858 1.62251 0.840955 
41 1 0.874036 0.125654 2.76777 
42 1 4.1716 0.711629 1.01684 
43 1 1.86813 4.03011 3.4992 
44 1 1.58432 2.12147 4.79306 
45 1 4.15221 2.91167 2.60206 
46 1 -0.0120478 0.635433 2.72444 
47 1 2.70312 0.850948 0.174158 
48 1 0.432623 3.70338 -0.0136804 
49 2 3.63112 1.69144 3.38071 
50 2 1.92641 2.16357 2.88223 
51 1 1.47663 1.06294 0.141329 
52 1 4.30222 2.57174 1.08606 
53 1 1.12134 4.06309 0.868725 
54 1 2.74487 4.12202 1.46641 
55 1 1.07186 2.46296 1.20508 
56 1 1.07577 0.626162 1.0711 
57 1 1.85155 4.40872 1.49689 
58 1 0.512323 1.4202 2.11363 
59 2 0.900527 1.93072 2.5564 
60 2 3.60191 3.31571 3.15633 
61 1 3.77187 4.20396 1.52531 
62 1 3.02559 1.85237 4.12708 
63 1 0.632351 0.346797 0.230002 
64 1 0.370905 3.47796 0.954647 
65 1 3.28633 2.50772 3.57615 
66 1 4.02142 1.73367 1.50776 
67 1 4.00202 2.18593 0.0963664 
68 1 2.30293 2.46088 1.15056 
69 2 3.54459 2.2109 2.67084 
70 2 2.16157 0.584055 4.05774 
71 1 0.728443 3.64591 3.41135 
72 1 -0.0226299 3.04594 3.62566 
73 1 3.86008 0.227638 0.176819 
74 1 2.5358 0.770799 1.95895 
75 1 2.15686 1.13076 0.995961 
76 1 2.21557 3.46466 0.851492 
77 1 -0.110123 3.4003 1.74123 
78 1 0.83427 3.44666 2.43865 
79 2 4.09482 1.44556 -0.237616 
80 2 1.13548 4.08471 1.94038 
81 1 0.372545 2.3963 1.99219 
82 1 1.19665 1.08044 2.95314 
83 1 0.502793 1.43695 0.181022 
84 1 2.829 0.120836 3.77832 
85 1 1.45043 0.727637 2.00462 
86 1 3.63458 -0.159221 3.27022 
87 1 1.14343 0.282688 3.73417 
88 1 1.43041 2.47218 2.26973 
89 2 2.71413 3.15764 3.4237 
90 2 3.15214 1.37736 2.18091 
91 1 1.95942 4.32509 0.158201 
92 1 1.38609 2.92903 3.65707 
93 1 3.87778 1.47798 2.59239 
94 1 1.33424 3.42262 1.53781 
95 1 3.41387 3.56647 2.25677 
96 1 2.90704 2.79647 2.65555 
97 1 2.19348 2.31076 3.76984 
98 1 3.34475 0.960274 3.79981 
99 2 3.63268 3.95801 0.689849 
100 2 0.327895 1.69496 1.00227 
