ITEM: TIMESTEP
161300
ITEM: NUMBER OF ATOMS
100
ITEM: BOX BOUNDS pp pp pp
0.0000000000000000e+00 4.3679023236814940e+00
0.0000000000000000e+00 4.3679023236814940e+00
0.0000000000000000e+00 4.3679023236814940e+00
ITEM: ATOMS id type x y z 
1 1 4.0451 1.0284 3.79644 
2 1 2.72541 0.538117 0.762915 
3 1 1.15043 2.93146 2.76433 
4 1 0.148785 3.63672 4.38143 
5 1 3.47254 2.10054 0.490839 
6 1 0.28146 4.0203 1.63115 
7 1 0.642983 0.269962 2.42291 
8 1 4.17184 3.05224 2.29191 
9 2 1.64928 3.66121 2.84629 
10 2 3.13114 1.3109 1.1503 
11 1 1.79204 3.34259 4.29876 
12 1 3.70588 1.92158 3.82988 
13 1 2.52563 1.6649 0.689896 
14 1 1.10246 4.11209 0.688601 
15 1 0.679246 0.735034 3.51775 
16 1 2.41781 0.679389 3.24302 
17 1 2.16465 1.39962 2.55879 
18 1 1.87523 4.20296 3.49588 
19 2 -0.182139 2.88202 0.323507 
20 2 0.697278 1.58071 1.9352 
21 1 2.61409 4.1655 2.60804 
22 1 2.9567 2.54616 3.41546 
23 1 2.38831 0.912867 4.24947 
24 1 1.27254 2.11404 2.11038 
25 1 3.27667 1.26129 2.07226 
26 1 1.6024 0.202955 2.60503 
27 1 3.52375 2.13383 1.65296 
28 1 0.612023 1.69714 3.87111 
29 2 -0.182711 3.49526 3.09158 
30 2 3.17239 1.03302 3.8451 
31 1 2.28086 3.20626 2.86362 
32 1 1.96284 2.76266 1.84038 
33 1 3.39972 4.24592 0.9767 
34 1 0.470108 3.34922 0.929528 
35 1 0.169639 2.59404 3.1189 
36 1 1.06238 2.63254 0.521146 
37 1 4.52021 4.23885 3.3536 
38 1 2.46224 1.71691 3.64839 
39 2 0.256423 0.83586 2.01378 
40 2 0.987127 1.50697 0.527901 
41 1 3.45341 0.311222 3.37731 
42 1 2.75361 0.393037 1.78909 
43 1 0.851883 -0.051039 4.0593 
44 1 3.34196 3.40883 2.89126 
45 1 1.01902 1.87479 3.05752 
46 1 0.617249 1.14825 1.23641 
47 1 2.51321 1.86738 1.65374 
48 1 1.24398 1.08254 2.2454 
49 2 2.93685 1.98728 4.29265 
50 2 3.79324 2.32534 2.96656 
51 1 2.63794 3.52593 0.584612 
52 1 0.979885 0.323557 1.48435 
53 1 0.100048 0.35413 0.891414 
54 1 4.05187 0.790974 2.58933 
55 1 2.90624 2.6899 1.07377 
56 1 1.95116 0.983948 1.44424 
57 1 3.93725 2.99664 1.14386 
58 1 1.37534 3.7672 1.93995 
59 2 3.7074 3.94892 3.7575 
60 2 0.980243 3.48713 0.166809 
61 1 3.76358 0.399044 1.67517 
62 1 1.88217 0.0397285 1.13036 
63 1 0.611948 0.928601 0.122907 
64 1 0.408846 2.18152 1.22295 
65 1 1.7005 1.88115 0.133423 
66 1 4.01916 4.10344 2.49454 
67 1 3.53139 1.14989 0.321718 
68 1 4.38221 1.645 3.0722 
69 2 1.548 0.97659 3.00226 
70 2 3.25829 3.42265 1.29984 
71 1 2.04532 2.31245 2.79395 
72 1 0.0480578 1.84258 0.382872 
73 1 2.42802 2.60974 -0.0863581 
74 1 4.25526 1.81481 2.09969 
75 1 0.427685 2.67553 4.01411 
76 1 1.50469 1.30249 3.78953 
77 1 2.8177 3.48423 3.87288 
78 1 2.54969 3.71102 1.54477 
79 2 1.44579 0.537613 3.80935 
80 2 1.8986 2.6413 0.689159 
81 1 3.98309 1.30901 1.25433 
82 1 1.4488 0.806474 0.614674 
83 1 0.596482 3.68731 2.63217 
84 1 1.4205 2.5586 3.78742 
85 1 2.99728 3.01758 2.03783 
86 1 1.55136 3.3076 1.10005 
87 1 0.760965 2.98593 1.81196 
88 1 1.50462 1.83808 1.16615 
89 2 3.26916 0.306714 2.57488 
90 2 1.02992 4.15646 3.21303 
91 1 3.83197 3.03381 3.6638 
92 1 3.39884 3.02548 0.186629 
93 1 2.99495 2.14525 2.49199 
94 1 4.0575 0.179926 4.35872 
95 1 0.924375 3.46293 3.72357 
96 1 2.99274 0.0708233 4.23163 
97 1 2.07092 4.38486 4.48193 
98 1 3.25269 1.31642 3.12964 
99 2 0.494159 2.33235 2.43696 
100 2 3.28499 3.93202 2.06451 
