ITEM: TIMESTEP
198000
ITEM: NUMBER OF ATOMS
100
ITEM: BOX BOUNDS pp pp pp
0.0000000000000000e+00 4.3679023236814940e+00
0.0000000000000000e+00 4.3679023236814940e+00
0.0000000000000000e+00 4.3679023236814940e+00
ITEM: ATOMS id type x y z 
1 1 0.44792 2.92455 2.79206 
2 1 1.30075 2.09002 2.81421 
3 1 2.43132 0.789712 0.891894 
4 1 3.35779 0.91927 2.36506 
5 1 3.47735 2.69916 1.23237 
6 1 3.21889 1.66845 3.07384 
7 1 1.56862 3.01294 2.43594 
8 1 1.65257 3.43773 0.486326 
9 2 3.44749 3.35058 0.688813 
10 2 2.37821 3.05284 2.51918 
11 1 2.19166 1.11299 1.99454 
12 1 0.666689 1.85877 0.375539 
13 1 2.16427 3.89678 1.21186 
14 1 2.42796 1.15584 3.2058 
15 1 3.13691 0.539603 3.26355 
16 1 1.51115 1.85042 1.86982 
17 1 -0.365534 1.63556 4.16956 
18 1 2.44825 2.07779 2.46389 
19 2 -0.109275 3.51109 4.48515 
20 2 1.00811 1.93519 1.17865 
21 1 3.50156 1.80357 0.682944 
22 1 1.69058 3.79787 3.89009 
23 1 0.965918 3.96245 3.06729 
24 1 2.39145 2.6691 1.68875 
25 1 0.103075 3.83688 3.5814 
26 1 4.17301 3.48594 1.05312 
27 1 3.26715 3.3056 -0.181499 
28 1 2.31371 2.91116 4.21971 
29 2 0.616715 1.58382 2.98652 
30 2 1.45159 3.96839 2.14623 
31 1 4.16993 4.39984 0.392594 
32 1 1.62956 0.351606 2.61626 
33 1 1.84355 2.24302 0.876497 
34 1 0.651955 2.72351 1.1698 
35 1 1.5608 0.189577 1.52121 
36 1 4.14037 2.63617 0.315713 
37 1 2.02011 3.83532 2.77872 
38 1 3.95807 0.0892289 2.71397 
39 2 3.35787 2.53663 3.11312 
40 2 0.230996 4.12547 1.29976 
41 1 3.24537 2.82598 2.39713 
42 1 2.65812 1.76584 1.22034 
43 1 1.06571 1.14758 2.4025 
44 1 0.751736 3.16376 4.0477 
45 1 1.55107 2.89002 3.35771 
46 1 3.76636 3.37859 2.94419 
47 1 2.3611 1.75418 4.52815 
48 1 2.19669 1.96514 3.58012 
49 2 3.10743 2.53886 0.347084 
50 2 3.34765 0.0696838 2.05418 
51 1 1.52828 3.10834 1.43532 
52 1 4.16865 2.89332 3.68533 
53 1 1.41041 2.27166 4.18622 
54 1 2.78835 3.17381 3.24237 
55 1 0.748897 0.309777 0.768514 
56 1 1.27459 1.21593 3.35904 
57 1 0.755896 3.59054 1.81141 
58 1 0.895385 0.0836663 4.12668 
59 2 2.46974 0.298039 2.7186 
60 2 1.04515 2.54767 1.95526 
61 1 1.89343 0.36848 3.54991 
62 1 3.39801 4.04496 3.61692 
63 1 1.75709 0.24336 0.376544 
64 1 4.24492 1.19048 2.23722 
65 1 0.666308 3.7335 0.414852 
66 1 0.562524 1.20787 1.49612 
67 1 3.04798 3.51533 1.64364 
68 1 3.30613 2.32209 3.89263 
69 2 4.59826 3.81333 2.74937 
70 2 0.8573 1.15044 0.696916 
71 1 4.26756 1.33274 3.24601 
72 1 3.20191 -0.10174 0.886796 
73 1 0.517838 1.02693 4.15864 
74 1 4.24139 2.97308 1.92554 
75 1 3.48089 1.91104 1.83702 
76 1 0.458706 2.08348 3.64478 
77 1 2.48099 0.758456 4.26501 
78 1 -0.0975274 1.12248 0.646077 
79 2 2.28341 3.71247 2.01676 
80 2 1.7812 1.49314 2.77829 
81 1 4.08388 2.26405 2.77671 
82 1 4.19771 0.415814 1.45435 
83 1 2.56232 4.02239 0.137301 
84 1 3.4591 0.992521 1.31346 
85 1 4.25873 2.08161 1.27218 
86 1 0.450244 1.98952 2.16244 
87 1 1.53418 1.25755 1.03564 
88 1 2.96089 3.96748 2.63261 
89 2 1.16933 3.88319 1.09917 
90 2 2.50526 4.14051 3.50435 
91 1 0.599529 0.55261 3.15438 
92 1 4.01283 3.93703 1.9044 
93 1 2.60438 3.17483 0.705736 
94 1 2.64504 4.58714 1.76496 
95 1 4.07393 0.399208 3.68483 
96 1 3.47345 0.740432 0.171673 
97 1 1.47621 1.25762 -0.000218312 
98 1 0.5771 0.27485 2.054 
99 2 3.237 1.32991 3.82753 
100 2 0.919507 2.68594 4.7068 
