ITEM: TIMESTEP
183400
ITEM: NUMBER OF ATOMS
100
ITEM: BOX BOUNDS pp pp pp
0.0000000000000000e+00 4.3679023236814940e+00
0.0000000000000000e+00 4.3679023236814940e+00
0.0000000000000000e+00 4.3679023236814940e+00
ITEM: ATOMS id type x y z 
1 1 4.04926 1.6146 0.137917 
2 1 0.917962 0.641268 1.69374 
3 1 1.09919 1.64225 0.931879 
4 1 3.78129 1.45819 2.63309 
5 1 1.93125 2.99606 1.12908 
6 1 3.07207 1.40054 0.0915663 
7 1 0.74082 3.09963 2.89501 
8 1 2.5037 1.9763 1.2212 
9 2 3.0636 0.544404 4.18499 
10 2 1.61233 2.22165 1.2255 
11 1 2.72338 -0.11887 2.70545 
12 1 0.51768 2.68838 0.413871 
13 1 3.01718 2.92387 0.771349 
14 1 1.85862 4.24707 2.10238 
15 1 3.97565 0.365231 0.108976 
16 1 3.29264 2.56407 1.78325 
17 1 3.9601 2.80386 0.965073 
18 1 1.56936 3.30056 2.00421 
19 2 0.454629 0.953214 4.42024 
20 2 2.61827 1.61284 3.80835 
21 1 2.86389 1.07793 1.31578 
22 1 1.35586 3.69621 3.52825 
23 1 3.412 3.44169 2.34201 
24 1 0.789263 3.19365 1.36923 
25 1 0.0385245 1.41485 3.49291 
26 1 3.63557 3.72995 1.30414 
27 1 1.10198 2.81526 3.96831 
28 1 2.69475 1.09643 3.15099 
29 2 -0.32801 2.4748 0.21846 
30 2 3.75511 4.32215 1.96199 
31 1 2.08435 3.31347 4.1935 
32 1 1.89378 0.480182 1.27539 
33 1 0.219993 4.28167 1.39887 
34 1 3.88898 1.46417 1.60695 
35 1 4.31597 2.97215 1.94261 
36 1 3.41812 2.00957 0.837475 
37 1 2.30902 2.55027 2.23661 
38 1 4.30512 3.92281 2.42738 
39 2 3.32692 0.841082 1.95286 
40 2 0.307502 1.84851 0.697511 
41 1 2.44806 0.761299 2.18544 
42 1 1.88274 1.55717 1.89998 
43 1 1.7537 1.37603 2.88748 
44 1 0.208645 0.399691 3.58457 
45 1 2.53506 4.30453 3.74546 
46 1 3.47901 2.43732 2.73723 
47 1 1.65534 2.49132 3.01257 
48 1 2.11015 3.39524 2.96168 
49 2 1.36555 1.3798 0.00195232 
50 2 4.05353 2.23206 2.04067 
51 1 0.923766 4.02865 2.03061 
52 1 0.124146 2.46164 3.78278 
53 1 1.63159 -0.0641609 -0.0914359 
54 1 3.15243 3.34067 3.28442 
55 1 0.41244 2.15559 1.52242 
56 1 1.1433 2.38235 2.17218 
57 1 4.12284 3.13508 3.06386 
58 1 0.498003 3.81606 3.94671 
59 2 1.04965 0.213273 3.70889 
60 2 2.42619 1.8831 2.76332 
61 1 0.818863 0.304196 2.82788 
62 1 3.6138 0.335363 2.71826 
63 1 2.01424 1.00909 3.85758 
64 1 3.50584 0.843278 3.60789 
65 1 1.51318 2.31527 0.466584 
66 1 1.26182 3.43373 0.424067 
67 1 2.97028 1.65005 2.15726 
68 1 3.2946 2.92875 4.18094 
69 2 0.429026 3.8623 3.0572 
70 2 0.304796 1.34552 1.76526 
71 1 1.00787 1.0719 3.66978 
72 1 0.640936 0.0840984 0.327183 
73 1 1.82363 0.269313 3.06003 
74 1 0.14139 2.18452 2.69013 
75 1 2.90591 -0.0447174 1.50596 
76 1 0.893192 2.00846 3.30608 
77 1 1.99118 1.44908 0.605442 
78 1 2.44711 2.20329 0.0504005 
79 2 3.10705 4.77662 0.741588 
80 2 0.281551 0.998758 2.77452 
81 1 2.70608 2.46616 3.40638 
82 1 4.3055 0.585603 2.07893 
83 1 3.76947 4.06234 3.55045 
84 1 2.39342 0.587788 0.347538 
85 1 3.50936 2.03239 3.68868 
86 1 0.893889 1.49739 2.34015 
87 1 2.34377 3.98278 0.764014 
88 1 2.48394 3.45356 1.80732 
89 2 4.0579 3.31653 4.0504 
90 2 1.45156 0.683681 2.31999 
91 1 1.69306 1.97128 3.86925 
92 1 3.76176 0.496489 1.23577 
93 1 4.16943 3.62953 0.451496 
94 1 3.1251 3.93902 0.12637 
95 1 1.29611 0.815534 0.549382 
96 1 4.69616 0.978235 0.863389 
97 1 0.702074 1.838 -0.0392929 
98 1 1.27359 4.15074 1.14143 
99 2 3.60441 1.17469 0.723529 
100 2 0.590053 3.82789 0.829535 
