ITEM: TIMESTEP
156500
ITEM: NUMBER OF ATOMS
100
ITEM: BOX BOUNDS pp pp pp
0.0000000000000000e+00 4.3679023236814940e+00
0.0000000000000000e+00 4.3679023236814940e+00
0.0000000000000000e+00 4.3679023236814940e+00
ITEM: ATOMS id type x y z 
1 1 3.52356 0.283481 3.44755 
2 1 3.33523 1.90981 0.291052 
3 1 0.871158 3.59542 2.32154 
4 1 3.52095 3.80045 0.343896 
5 1 3.73517 2.75905 4.41744 
6 1 0.802996 4.21106 0.80637 
7 1 4.39181 4.34389 2.84145 
8 1 0.676185 3.18708 1.20807 
9 2 0.597357 3.37633 3.21135 
10 2 3.14969 0.378333 0.723149 
11 1 2.09996 2.60133 3.28375 
12 1 2.83563 2.59614 4.03376 
13 1 2.84158 1.12095 0.661162 
14 1 2.12001 0.499672 1.06273 
15 1 0.00399111 0.93068 2.48592 
16 1 0.917653 0.919951 3.10221 
17 1 1.6009 4.50356 2.83595 
18 1 2.30038 3.33264 2.464 
19 2 1.60195 1.60778 1.64709 
20 2 1.29547 2.51769 0.831182 
21 1 2.30243 4.06797 1.6891 
22 1 3.17516 2.04119 1.26593 
23 1 2.09759 0.686029 4.46253 
24 1 0.223569 1.55782 1.73856 
25 1 2.08869 0.661958 2.14905 
26 1 3.66053 1.92936 3.75855 
27 1 3.86939 1.07437 1.23009 
28 1 0.408452 1.90995 2.70386 
29 2 3.7933 3.88205 3.3032 
30 2 2.57983 2.03812 0.519119 
31 1 1.99911 3.1733 4.07041 
32 1 3.75061 2.04173 2.18237 
33 1 3.86505 0.0743575 0.959415 
34 1 1.46145 3.43052 0.593386 
35 1 1.08961 2.35495 1.59606 
36 1 2.17836 2.73456 0.694287 
37 1 3.69189 0.83518 4.51858 
38 1 2.82908 1.85734 3.16634 
39 2 1.33499 1.10046 0.291746 
40 2 0.0674979 1.66621 3.44792 
41 1 3.73319 0.30102 2.1867 
42 1 0.313367 0.44856 1.60353 
43 1 1.88919 4.10857 -0.152885 
44 1 3.04316 3.71811 3.69217 
45 1 -0.026633 2.85797 1.80946 
46 1 1.89439 1.63571 0.836343 
47 1 0.832755 1.61895 0.878537 
48 1 1.21572 0.725571 1.08844 
49 2 2.14927 3.6693 3.48887 
50 2 3.88063 2.08588 2.99916 
51 1 3.3124 3.91942 1.61694 
52 1 0.830511 4.25875 3.53214 
53 1 1.6054 3.19704 1.59167 
54 1 2.91052 0.846235 2.56782 
55 1 4.31781 3.90557 1.82677 
56 1 2.48587 1.46495 1.88299 
57 1 0.565343 2.46268 0.357589 
58 1 1.41267 4.35717 1.77616 
59 2 2.94179 2.93503 0.605844 
60 2 1.63561 4.4087 0.636582 
61 1 3.64356 1.2014 3.01799 
62 1 1.07507 0.514906 4.19996 
63 1 0.0228017 -0.0122099 -0.0861581 
64 1 0.199119 2.57913 3.37426 
65 1 1.1369 1.56195 3.99143 
66 1 4.41505 3.48796 3.74573 
67 1 0.269672 3.55281 0.473163 
68 1 3.58889 2.90355 3.30779 
69 2 1.46968 1.75288 3.32434 
70 2 0.747987 2.30101 3.8994 
71 1 1.13198 1.00551 2.11629 
72 1 0.0814283 1.58443 -0.0333984 
73 1 3.56121 3.03866 1.14125 
74 1 4.12079 2.05882 0.882054 
75 1 1.48045 2.33949 4.40602 
76 1 0.0332325 0.827677 3.5777 
77 1 2.49816 3.9412 0.684225 
78 1 3.23015 3.99068 2.65921 
79 2 1.0115 3.91435 4.44128 
80 2 1.61231 2.87671 2.38269 
81 1 0.30228 0.809818 0.627066 
82 1 2.96454 0.0855348 4.2958 
83 1 1.47668 3.3764 3.10249 
84 1 1.171 2.47998 2.8762 
85 1 2.87124 2.33228 2.23968 
86 1 2.67401 3.06436 1.52457 
87 1 1.93761 1.84569 2.61434 
88 1 2.05995 2.3447 1.65151 
89 2 1.76088 0.299127 3.66262 
90 2 0.76997 4.48822 2.37744 
91 1 -0.102531 3.36961 2.68993 
92 1 3.45552 3.05501 2.28126 
93 1 2.01201 1.07203 3.41531 
94 1 2.99602 0.621275 1.52734 
95 1 0.86558 3.09896 4.07796 
96 1 2.53283 0.0824062 3.16877 
97 1 2.29379 1.7736 4.09544 
98 1 2.90449 1.06331 3.92001 
99 2 0.472874 2.74632 2.52418 
100 2 3.4331 1.24342 2.06531 
