ITEM: TIMESTEP
162900
ITEM: NUMBER OF ATOMS
100
ITEM: BOX BOUNDS pp pp pp
0.0000000000000000e+00 4.3679023236814940e+00
0.0000000000000000e+00 4.3679023236814940e+00
0.0000000000000000e+00 4.3679023236814940e+00
ITEM: ATOMS id type x y z 
1 1 4.04832 0.73419 4.30086 
2 1 2.1137 0.595212 0.849755 
3 1 1.18157 3.05901 3.15615 
4 1 0.660108 2.8026 -0.156577 
5 1 3.88209 2.92636 0.0737158 
6 1 0.254901 3.48105 0.363116 
7 1 1.48386 0.437616 2.54625 
8 1 4.29318 2.88128 1.46019 
9 2 2.00785 3.79309 2.47996 
10 2 3.51183 1.31675 1.58531 
11 1 1.32578 3.63459 3.99213 
12 1 3.96661 1.71117 4.15571 
13 1 2.81338 1.47792 1.04891 
14 1 0.873233 4.00162 1.0413 
15 1 1.03861 1.1638 3.00483 
16 1 3.39003 0.72897 3.41972 
17 1 2.46035 1.92676 2.07498 
18 1 1.47192 4.08259 3.11127 
19 2 0.40247 2.75963 0.671183 
20 2 -0.190423 2.01615 1.75843 
21 1 3.5093 4.40944 2.33877 
22 1 3.12354 2.76265 3.69864 
23 1 2.40416 4.30026 -0.10291 
24 1 1.44442 1.64295 2.02762 
25 1 3.16406 1.01583 2.33412 
26 1 2.43996 0.137787 2.3955 
27 1 4.24559 2.13089 0.860451 
28 1 0.655975 0.873657 3.9943 
29 2 3.96233 2.80098 2.273 
30 2 3.16328 0.32394 4.14853 
31 1 2.11267 2.72149 2.92737 
32 1 2.3814 3.07828 2.03555 
33 1 3.08552 0.475119 1.38231 
34 1 1.22719 3.12299 0.726643 
35 1 0.404039 3.12701 2.34713 
36 1 0.790373 2.27919 1.4049 
37 1 3.85708 3.50566 2.82467 
38 1 2.27368 0.98676 3.89981 
39 2 4.09449 0.122131 3.34953 
40 2 0.323695 1.00025 0.427548 
41 1 3.27966 4.00795 3.45952 
42 1 1.43729 2.09306 3.02136 
43 1 0.534645 0.128067 3.41363 
44 1 2.80202 3.62558 2.72179 
45 1 0.629437 2.13306 2.44563 
46 1 0.807642 0.509917 1.67664 
47 1 3.39782 2.37088 1.62605 
48 1 0.208087 1.25494 2.28093 
49 2 2.01695 1.18118 0.276799 
50 2 3.07282 1.93718 4.18827 
51 1 1.71452 3.95839 0.586282 
52 1 0.350873 0.267311 2.48287 
53 1 4.50936 0.24542 0.865159 
54 1 4.29367 1.24946 3.35737 
55 1 3.18244 2.40858 0.656731 
56 1 2.2292 0.934129 1.7792 
57 1 3.57813 3.45403 0.908985 
58 1 1.76866 4.37848 1.59672 
59 2 3.68258 3.32041 3.78344 
60 2 1.46175 2.26428 0.537255 
61 1 2.21348 1.18444 2.74617 
62 1 1.13393 0.818099 0.643291 
63 1 0.675698 4.30158 0.071546 
64 1 0.509391 1.33348 1.19791 
65 1 2.21641 2.01741 0.25917 
66 1 4.42862 3.90648 1.76142 
67 1 3.06477 1.23603 0.148976 
68 1 0.596945 1.88435 3.53264 
69 2 2.66909 2.00704 2.90695 
70 2 1.66661 3.49079 1.45636 
71 1 2.28012 1.98338 3.69454 
72 1 3.86362 1.25716 0.822592 
73 1 2.31706 3.59266 3.59166 
74 1 3.75965 1.85744 2.50204 
75 1 0.61641 1.92428 0.188328 
76 1 1.42602 1.57316 4.02954 
77 1 2.46819 0.207133 3.36053 
78 1 2.57086 3.72906 1.23377 
79 2 1.82984 0.72496 3.27617 
80 2 2.34272 2.86026 3.90263 
81 1 4.0879 0.488921 1.68876 
82 1 1.74707 1.50118 0.999639 
83 1 1.09807 3.89681 2.20353 
84 1 1.52756 2.53169 4.06719 
85 1 3.27961 3.64452 1.83728 
86 1 2.27263 3.06558 0.44832 
87 1 1.37061 2.84511 2.10721 
88 1 1.9702 2.44645 1.31801 
89 2 3.83688 0.716964 2.71983 
90 2 0.280401 3.83325 2.79629 
91 1 4.03379 2.4836 3.4521 
92 1 2.9802 3.51709 4.36154 
93 1 3.10958 2.66751 2.56785 
94 1 3.98507 4.10998 4.30334 
95 1 0.0947775 3.51278 3.68896 
96 1 3.31327 0.0310376 0.552865 
97 1 1.56777 0.433744 4.17956 
98 1 3.33164 1.7285 3.37766 
99 2 0.689308 3.19141 1.57903 
100 2 3.81702 4.21768 1.22107 
