ITEM: TIMESTEP
101200
ITEM: NUMBER OF ATOMS
100
ITEM: BOX BOUNDS pp pp pp
0.0000000000000000e+00 4.3679023236814940e+00
0.0000000000000000e+00 4.3679023236814940e+00
0.0000000000000000e+00 4.3679023236814940e+00
ITEM: ATOMS id type x y z 
1 1 3.59909 1.49621 1.39745 
2 1 0.0688808 0.80544 3.8965 
3 1 2.78647 0.455313 4.25581 
4 1 0.456695 3.93783 3.92756 
5 1 2.87401 3.17674 0.710656 
6 1 0.94638 1.21157 4.26048 
7 1 1.23165 1.74555 0.590597 
8 1 1.13782 1.87624 1.56337 
9 2 2.06486 1.80547 0.923043 
10 2 2.56796 0.310064 2.24408 
11 1 3.06229 2.27053 2.07135 
12 1 0.158355 2.11635 0.611148 
13 1 1.11464 0.850416 1.00555 
14 1 2.10737 3.1233 3.53108 
15 1 3.07661 0.367825 3.1316 
16 1 1.79212 2.64489 0.683125 
17 1 2.20059 3.8681 0.181803 
18 1 1.08995 2.93886 1.80896 
19 2 2.1635 0.0518373 3.62638 
20 2 1.19055 0.286706 3.52572 
21 1 -0.0380459 3.22376 2.12813 
22 1 1.76907 0.333332 1.8007 
23 1 3.16524 2.72284 3.11276 
24 1 2.59138 3.92533 1.57949 
25 1 -0.248048 0.376738 2.98176 
26 1 1.07458 3.01125 3.48852 
27 1 0.463556 3.82528 1.08842 
28 1 0.156979 0.295414 1.31052 
29 2 0.420325 2.55098 1.91306 
30 2 0.00825952 1.6464 -0.147797 
31 1 4.74873 2.92965 1.1785 
32 1 3.79903 3.33304 3.91511 
33 1 1.29711 -0.0259966 0.578477 
34 1 3.77976 3.73544 1.26025 
35 1 1.57196 3.35442 2.55906 
36 1 0.714574 1.67551 2.58618 
37 1 3.17928 1.21416 2.53232 
38 1 3.69018 1.15415 3.47463 
39 2 3.68519 0.30141 1.42847 
40 2 2.57037 1.46866 1.97278 
41 1 4.33842 4.16497 2.05329 
42 1 3.8419 2.22009 3.84877 
43 1 0.273227 1.45558 1.57505 
44 1 0.384091 2.6467 4.18985 
45 1 3.08176 1.68792 3.99003 
46 1 0.10147 1.15838 0.757305 
47 1 0.662805 4.08698 2.72708 
48 1 2.35102 2.17509 3.34753 
49 2 2.4741 3.06751 1.63176 
50 2 0.073788 1.19217 3.04846 
51 1 2.3567 2.75575 2.48825 
52 1 2.25816 0.857925 3.15982 
53 1 3.02057 2.76441 4.12577 
54 1 3.01518 2.31895 1.08482 
55 1 1.48756 2.38782 2.86143 
56 1 4.05719 0.896366 2.16051 
57 1 0.393184 2.60612 2.80365 
58 1 3.45332 3.67742 2.97223 
59 2 2.12308 3.02727 4.41187 
60 2 3.09749 2.16361 0.313006 
61 1 3.72811 1.58967 0.325031 
62 1 3.77923 4.49992 3.86222 
63 1 2.85841 3.84866 3.70886 
64 1 0.379113 0.22516 0.280231 
65 1 1.67617 0.193653 2.85241 
66 1 3.3856 3.18927 2.12697 
67 1 0.772258 0.787935 3.01335 
68 1 1.80038 3.57053 1.18189 
69 2 3.76198 2.96691 1.35347 
70 2 4.06877 2.76272 3.20332 
71 1 1.76563 0.701044 4.11149 
72 1 2.13198 0.313711 0.850227 
73 1 0.737007 0.481007 2.06332 
74 1 1.43465 1.4342 3.33103 
75 1 3.33704 4.19714 2.06988 
76 1 3.62351 0.587476 0.49669 
77 1 4.42409 3.46955 3.09263 
78 1 0.407261 1.85231 3.5458 
79 2 1.86457 1.02451 0.393654 
80 2 0.91648 2.54871 0.724168 
81 1 1.12152 3.9388 1.87385 
82 1 3.87395 2.87606 0.555228 
83 1 1.51629 3.91344 3.73041 
84 1 1.20643 3.38285 0.210976 
85 1 1.29993 2.21829 3.97081 
86 1 2.8078 1.31928 0.780704 
87 1 4.26019 3.73996 0.351076 
88 1 4.00604 1.90871 2.86826 
89 2 1.00794 0.109243 1.34551 
90 2 1.03631 1.24666 2.02375 
91 1 2.13793 1.19068 1.42413 
92 1 2.02677 2.20227 1.62869 
93 1 2.24666 2.11534 -0.034692 
94 1 2.91785 0.617053 1.57666 
95 1 3.22516 3.92302 0.195232 
96 1 2.37133 3.98044 2.85822 
97 1 1.8728 1.23905 2.39516 
98 1 4.06488 2.30875 1.73107 
99 2 2.72872 4.13235 0.85226 
100 2 3.03372 1.77873 3.1617 
