ITEM: TIMESTEP
196800
ITEM: NUMBER OF ATOMS
100
ITEM: BOX BOUNDS pp pp pp
0.0000000000000000e+00 4.3679023236814940e+00
0.0000000000000000e+00 4.3679023236814940e+00
0.0000000000000000e+00 4.3679023236814940e+00
ITEM: ATOMS id type x y z 
1 1 0.298579 2.5346 2.93749 
2 1 1.67939 1.57685 2.46743 
3 1 2.28633 0.749198 0.861698 
4 1 3.50972 1.31679 2.51938 
5 1 3.41349 2.94819 1.36164 
6 1 3.2535 1.62561 3.53733 
7 1 1.4481 3.07182 2.20671 
8 1 1.43052 3.41872 0.144249 
9 2 3.56667 3.88452 1.15179 
10 2 2.15049 2.4503 2.62583 
11 1 2.39217 0.662537 1.99204 
12 1 0.587539 1.81985 0.606784 
13 1 1.8712 4.18324 0.818062 
14 1 2.5873 1.03501 3.02238 
15 1 3.36656 0.676041 3.52142 
16 1 1.1071 1.50712 1.38459 
17 1 0.816733 2.03588 3.93562 
18 1 2.72466 1.9093 2.44575 
19 2 -0.0364401 3.88142 -0.227883 
20 2 0.872 0.911718 0.607501 
21 1 3.38325 2.09462 0.682159 
22 1 2.00895 3.87318 3.75625 
23 1 1.27465 3.64783 2.97105 
24 1 2.25863 2.58839 1.74321 
25 1 0.0800132 3.83127 3.30531 
26 1 4.30478 3.48791 1.39985 
27 1 3.60419 3.25356 0.390448 
28 1 2.54496 3.16042 4.39379 
29 2 4.23342 1.91345 2.46248 
30 2 1.43889 4.07133 2.22503 
31 1 4.05329 4.18694 0.558079 
32 1 1.60541 0.47692 2.5139 
33 1 1.48503 2.40251 1.01165 
34 1 0.707086 2.93725 1.2549 
35 1 0.929685 4.04863 1.63574 
36 1 4.27817 2.57354 0.795648 
37 1 2.33535 3.45964 2.6703 
38 1 3.97303 4.62362 2.82744 
39 2 2.83577 2.45804 3.11981 
40 2 4.70019 4.14399 1.11203 
41 1 3.06385 2.86135 2.30228 
42 1 2.24407 1.62975 1.38712 
43 1 0.784332 1.63005 2.85464 
44 1 0.81061 3.08226 3.74602 
45 1 2.11699 2.91268 3.44049 
46 1 3.81232 3.39021 2.58836 
47 1 2.5116 1.87941 0.332862 
48 1 2.26439 1.93226 3.37633 
49 2 2.67432 2.65885 0.945023 
50 2 3.28664 0.409843 2.01423 
51 1 1.71437 3.39142 1.33835 
52 1 -0.254627 2.92744 3.78996 
53 1 1.75061 2.4139 4.34652 
54 1 3.21303 3.23052 3.40491 
55 1 0.740328 0.00122756 0.430314 
56 1 1.57332 1.34363 3.81595 
57 1 0.51438 3.41996 2.36145 
58 1 0.881249 4.01524 3.88372 
59 2 1.96257 4.17746 2.91316 
60 2 1.57871 2.05611 1.811 
61 1 1.9737 0.458568 3.53508 
62 1 3.53462 4.08883 4.02191 
63 1 1.59888 0.302894 4.43127 
64 1 0.00399417 0.957121 2.22944 
65 1 0.396606 3.37203 0.304036 
66 1 0.456453 0.678913 1.28133 
67 1 3.26004 3.91247 1.95378 
68 1 3.19275 2.4838 4.08429 
69 2 4.37718 4.12084 2.14121 
70 2 4.43145 0.573327 0.335309 
71 1 4.19464 1.56458 3.24521 
72 1 3.01165 0.124322 1.18837 
73 1 0.607001 1.06946 -0.172681 
74 1 4.21799 2.64296 1.98351 
75 1 3.40045 2.04631 1.73189 
76 1 1.2813 2.46769 3.02659 
77 1 2.55558 1.06066 4.19508 
78 1 4.08213 1.94598 -0.11666 
79 2 2.62679 3.31607 1.79376 
80 2 0.998073 0.926458 2.27933 
81 1 3.66591 2.36763 3.03444 
82 1 -0.335242 1.28995 0.719385 
83 1 2.59241 -0.000744805 4.36615 
84 1 3.27727 1.07499 1.27338 
85 1 4.47837 1.72992 1.5543 
86 1 0.793526 2.27436 2.04901 
87 1 1.49169 0.49522 1.4681 
88 1 2.79013 0.12381 2.6913 
89 2 0.998535 3.64725 0.916674 
90 2 2.69218 -0.00872448 3.53041 
91 1 0.977748 0.784362 3.27545 
92 1 3.96254 4.56489 1.61277 
93 1 2.6945 3.57227 0.916711 
94 1 2.21899 -0.261336 1.84355 
95 1 4.44986 0.313108 3.84481 
96 1 3.331 0.674359 0.375367 
97 1 1.58759 1.3489 0.508958 
98 1 0.679512 4.50086 2.62613 
99 2 3.70294 1.18363 4.11446 
100 2 0.798285 2.60753 0.298708 
