ITEM: TIMESTEP
196500
ITEM: NUMBER OF ATOMS
100
ITEM: BOX BOUNDS pp pp pp
0.0000000000000000e+00 4.3679023236814940e+00
0.0000000000000000e+00 4.3679023236814940e+00
0.0000000000000000e+00 4.3679023236814940e+00
ITEM: ATOMS id type x y z 
1 1 -0.0318722 2.22455 3.28023 
2 1 1.75732 1.21858 2.63564 
3 1 2.32621 0.887266 0.821065 
4 1 3.49188 1.13067 2.33939 
5 1 3.03075 2.80436 0.990963 
6 1 3.38912 1.72372 3.85195 
7 1 1.45283 2.92533 2.1583 
8 1 1.751 3.48084 0.240319 
9 2 3.4082 3.68885 1.13823 
10 2 1.69167 2.01173 2.66212 
11 1 2.49275 1.12368 1.94201 
12 1 0.842784 1.64944 1.06823 
13 1 1.83437 4.36101 0.666792 
14 1 2.68195 1.30874 3.04087 
15 1 3.3796 0.718488 3.62061 
16 1 1.56883 1.19929 1.52495 
17 1 0.706984 1.90514 3.99001 
18 1 2.56872 2.11732 2.46613 
19 2 0.140897 3.70488 0.125993 
20 2 1.23582 0.646669 0.918007 
21 1 3.34058 1.90003 0.541469 
22 1 1.90934 3.99076 3.7514 
23 1 1.2879 3.74298 2.969 
24 1 2.22134 2.64074 1.59855 
25 1 0.269162 4.14715 3.27279 
26 1 3.90748 3.27864 1.65383 
27 1 3.8242 3.22104 0.325074 
28 1 2.65012 3.14709 4.03408 
29 2 4.24368 1.62505 2.68432 
30 2 1.27976 3.7994 2.07569 
31 1 3.71656 4.25507 0.301944 
32 1 1.54387 0.304691 2.34748 
33 1 1.45577 2.57965 0.889203 
34 1 0.667949 2.57543 1.42808 
35 1 0.548554 3.58731 1.66189 
36 1 4.07761 2.38612 1.09752 
37 1 2.16343 3.75641 2.20518 
38 1 3.72512 4.52053 2.78596 
39 2 2.83351 2.84607 3.01132 
40 2 4.3794 3.76429 1.07703 
41 1 2.95719 3.01122 2.22724 
42 1 2.41146 1.76064 1.21091 
43 1 0.832359 1.37366 2.92981 
44 1 1.1987 3.27544 3.80508 
45 1 2.0166 2.96674 3.04497 
46 1 3.79913 3.32761 2.77262 
47 1 2.49969 2.27561 0.224601 
48 1 2.58582 2.26128 3.52111 
49 2 2.33246 3.03817 0.690733 
50 2 3.16768 0.543619 1.83637 
51 1 1.64359 3.47337 1.32898 
52 1 0.113624 3.28722 3.84481 
53 1 1.68432 2.47033 3.99238 
54 1 2.76773 3.66735 3.1445 
55 1 0.298533 0.065995 0.701192 
56 1 1.65063 1.5563 3.57342 
57 1 0.391354 3.24602 2.81162 
58 1 0.860245 4.17428 4.14341 
59 2 2.10977 4.18044 2.90689 
60 2 1.6473 2.03273 1.6549 
61 1 2.16031 0.477214 3.38092 
62 1 3.66674 3.94475 3.59974 
63 1 1.66096 0.609448 4.32639 
64 1 0.140278 0.79842 2.53706 
65 1 0.600369 3.12528 0.548694 
66 1 0.511418 0.717011 1.4458 
67 1 3.08672 4.09158 1.97599 
68 1 3.60327 2.72104 3.76196 
69 2 4.30036 3.77722 2.31765 
70 2 4.01015 0.550195 1.00424 
71 1 4.30085 1.20999 3.45093 
72 1 3.17478 0.196964 1.0699 
73 1 0.757309 1.01284 0.151838 
74 1 4.34843 2.45553 2.293 
75 1 3.31209 2.07475 1.78113 
76 1 1.07212 2.43838 3.19653 
77 1 2.57403 1.15508 4.13786 
78 1 4.2292 2.20385 -0.0674596 
79 2 2.66805 3.56436 1.53077 
80 2 0.936323 0.828393 2.22507 
81 1 3.53631 2.14187 2.81791 
82 1 -0.130571 1.35026 0.751883 
83 1 2.80186 0.173989 4.28651 
84 1 3.29391 1.12779 1.2594 
85 1 4.30977 1.62001 1.74004 
86 1 1.06541 1.92841 2.16667 
87 1 1.20569 0.0268371 1.48412 
88 1 2.72069 0.386284 2.54074 
89 2 1.19755 3.87187 0.752141 
90 2 2.93649 0.0744705 3.26585 
91 1 1.02806 0.462695 3.41968 
92 1 4.105 4.39712 1.62296 
93 1 2.721 3.74468 0.624276 
94 1 2.2884 0.206903 1.63331 
95 1 4.34183 0.427296 4.08232 
96 1 3.35508 0.882481 0.2837 
97 1 1.574 1.70634 0.307748 
98 1 0.647214 4.27403 2.39884 
99 2 4.17722 1.40753 4.2633 
100 2 0.630425 2.14065 0.395101 
