ITEM: TIMESTEP
115200
ITEM: NUMBER OF ATOMS
100
ITEM: BOX BOUNDS pp pp pp
0.0000000000000000e+00 4.3679023236814940e+00
0.0000000000000000e+00 4.3679023236814940e+00
0.0000000000000000e+00 4.3679023236814940e+00
ITEM: ATOMS id type x y z 
1 1 0.887823 1.05849 1.7873 
2 1 2.49539 3.70242 3.8843 
3 1 2.21464 3.65212 0.490638 
4 1 0.283654 1.06996 4.40863 
5 1 3.27796 3.88593 2.31951 
6 1 0.364709 1.08224 2.80943 
7 1 1.24343 2.12889 4.19831 
8 1 1.35991 3.15437 3.06113 
9 2 3.61668 1.03361 4.23211 
10 2 2.67688 0.131593 0.599331 
11 1 0.266369 3.68224 3.99989 
12 1 1.48997 3.75726 3.86208 
13 1 1.01508 2.18367 1.43921 
14 1 2.35548 2.6953 3.50339 
15 1 0.263698 1.6082 1.42178 
16 1 3.02983 0.744069 1.0441 
17 1 2.18907 2.7095 2.42563 
18 1 2.66813 1.53466 3.3117 
19 2 0.285812 0.151143 4.41897 
20 2 2.17623 2.98943 -0.0527632 
21 1 2.91459 2.65221 0.767704 
22 1 3.19708 4.21358 3.24794 
23 1 1.97871 0.982784 3.64934 
24 1 1.13868 0.63085 1.00485 
25 1 2.00225 0.0482217 1.10281 
26 1 4.13259 3.70204 2.92876 
27 1 3.7543 3.46005 1.3378 
28 1 3.89129 0.286091 0.407228 
29 2 0.973862 2.16943 3.05037 
30 2 3.6049 2.24465 3.7405 
31 1 0.168697 3.94148 1.06242 
32 1 0.81732 1.4854 3.57134 
33 1 3.70726 1.29505 3.36546 
34 1 2.58684 1.72381 0.751066 
35 1 2.50788 0.63925 2.78733 
36 1 1.13551 2.9655 0.197968 
37 1 3.02327 1.45575 1.65632 
38 1 1.69019 1.84678 3.24202 
39 2 2.20109 0.0158063 3.31684 
40 2 4.18092 3.70892 2.04575 
41 1 -0.0111142 2.01343 3.09479 
42 1 3.25158 4.07631 -0.0994689 
43 1 2.04744 0.772468 1.80774 
44 1 1.92265 2.73502 0.731926 
45 1 4.07205 0.308277 2.62886 
46 1 2.05817 0.852773 0.464628 
47 1 2.37414 3.26921 1.5249 
48 1 2.99816 0.676836 3.71701 
49 2 1.03371 2.89649 1.02815 
50 2 0.784719 0.15406 2.62878 
51 1 3.83114 3.27317 3.75067 
52 1 1.21447 3.69087 1.22561 
53 1 1.5827 4.21914 2.81521 
54 1 2.02414 2.02706 1.64199 
55 1 1.21737 4.47269 1.85243 
56 1 3.92246 1.28727 0.747808 
57 1 3.01125 2.60811 1.80005 
58 1 1.33469 0.85329 2.78676 
59 2 0.552694 1.07317 0.756714 
60 2 4.23501 2.82318 3.14783 
61 1 2.33498 1.55156 2.42324 
62 1 3.81976 2.30549 0.53476 
63 1 0.290974 2.92046 0.645713 
64 1 0.541347 2.64606 3.63183 
65 1 3.95038 3.42521 0.412501 
66 1 3.17325 1.79533 -0.144121 
67 1 2.46375 3.7055 2.82019 
68 1 4.02383 3.00209 2.2614 
69 2 3.40253 0.981589 2.54272 
70 2 1.46772 1.42456 1.44356 
71 1 2.24795 0.158023 4.19491 
72 1 0.329244 -0.0529184 1.97598 
73 1 1.37365 2.92631 1.98667 
74 1 3.05852 0.403071 1.96884 
75 1 0.468855 1.89334 0.505484 
76 1 2.19678 1.79726 4.20449 
77 1 2.19393 4.23597 2.04107 
78 1 0.555286 2.64899 2.57963 
79 2 3.88518 0.118175 1.66692 
80 2 0.617429 3.44488 3.29141 
81 1 1.25893 2.018 2.32165 
82 1 0.395499 3.10855 1.61744 
83 1 3.96955 4.80574 3.7767 
84 1 1.17499 0.373624 4.08909 
85 1 0.0417058 0.573494 1.24751 
86 1 4.34916 1.97993 4.10434 
87 1 0.746054 3.62731 2.48171 
88 1 1.53222 1.78571 0.721463 
89 2 4.80633 0.79156 3.65531 
90 2 3.0856 3.51868 0.607905 
91 1 3.87277 2.20187 1.66602 
92 1 3.38957 1.98284 2.64461 
93 1 3.96946 1.12921 1.96299 
94 1 0.890507 4.18641 0.440761 
95 1 3.01386 4.14067 1.24446 
96 1 3.06492 2.7682 4.20554 
97 1 3.32414 2.90355 2.98311 
98 1 0.344978 4.41378 3.36791 
99 2 1.34415 1.15775 -0.0397019 
100 2 2.7215 1.15168 0.15467 
