ITEM: TIMESTEP
212200
ITEM: NUMBER OF ATOMS
100
ITEM: BOX BOUNDS pp pp pp
0.0000000000000000e+00 4.3679023236814940e+00
0.0000000000000000e+00 4.3679023236814940e+00
0.0000000000000000e+00 4.3679023236814940e+00
ITEM: ATOMS id type x y z 
1 1 4.02317 2.16755 3.02016 
2 1 1.53467 1.14629 2.02129 
3 1 2.69 0.582462 0.766592 
4 1 2.45167 3.61313 2.11778 
5 1 3.1743 2.63466 0.309523 
6 1 2.28132 1.5152 3.54113 
7 1 1.01091 4.03685 1.76743 
8 1 0.272188 3.6174 1.12685 
9 2 2.48824 0.113318 2.9448 
10 2 0.892299 2.61884 3.99952 
11 1 2.12676 1.43139 1.24919 
12 1 1.2262 1.24558 0.730172 
13 1 0.789737 2.56681 1.24446 
14 1 1.2881 1.41343 2.9909 
15 1 3.75228 1.30719 3.52085 
16 1 0.681194 1.49881 1.46306 
17 1 0.301823 1.48356 3.67287 
18 1 2.42402 2.03025 2.0189 
19 2 1.8552 3.0709 3.98066 
20 2 1.4617 2.00473 1.27994 
21 1 0.246878 1.0455 0.524845 
22 1 1.87988 0.106417 0.329139 
23 1 0.734488 2.34535 3.12073 
24 1 2.20408 3.39192 0.3199 
25 1 0.323339 3.90698 3.84309 
26 1 3.9023 3.35994 4.29537 
27 1 4.21184 2.59156 0.654644 
28 1 2.06342 3.78758 3.10599 
29 2 1.76203 1.90386 0.423593 
30 2 3.55597 2.91283 3.54119 
31 1 4.0851 4.31161 0.398767 
32 1 2.4059 1.15223 2.52984 
33 1 1.44746 2.72915 0.33473 
34 1 1.66724 3.06698 1.47778 
35 1 0.59678 0.461411 2.0903 
36 1 4.05319 1.68845 1.29023 
37 1 1.25754 2.05504 2.16799 
38 1 4.03053 0.672744 1.77198 
39 2 -0.0846811 3.06012 2.33612 
40 2 3.49957 0.983469 2.58734 
41 1 3.11552 3.30922 1.17544 
42 1 2.20508 2.44625 0.982759 
43 1 0.573378 4.07451 2.78927 
44 1 1.3171 3.78167 0.841178 
45 1 1.8121 2.879 2.51586 
46 1 3.38034 3.55498 3.01314 
47 1 2.49039 4.13472 3.93015 
48 1 0.760306 3.07322 2.23336 
49 2 2.91021 1.42855 4.04561 
50 2 2.52778 0.558194 4.1955 
51 1 1.55695 0.293656 2.56844 
52 1 4.33322 2.56303 3.87272 
53 1 4.12463 0.416573 2.9701 
54 1 4.29646 3.26446 3.1709 
55 1 3.27758 4.32444 1.41013 
56 1 1.10492 3.33924 3.20899 
57 1 4.02189 2.9025 1.51716 
58 1 1.43505 3.79119 4.08524 
59 2 1.19541 -0.14518 3.39807 
60 2 -0.115913 -0.0551978 1.30688 
61 1 3.38157 0.739319 -0.116002 
62 1 3.50144 4.26306 3.70522 
63 1 1.59432 0.476268 1.24787 
64 1 3.35336 1.75858 2.32656 
65 1 0.566451 3.18353 0.124361 
66 1 2.24908 4.03294 1.17046 
67 1 3.47491 2.80632 2.38625 
68 1 2.24189 2.25386 4.28769 
69 2 1.39867 3.68389 2.45919 
70 2 0.770878 1.32156 2.31198 
71 1 0.0317745 1.31087 2.57047 
72 1 3.20761 0.135288 2.45992 
73 1 0.739728 0.589093 3.18947 
74 1 0.677775 2.08444 0.339284 
75 1 3.07828 1.20111 1.54519 
76 1 1.31911 1.61069 4.07283 
77 1 3.69995 0.794031 0.853371 
78 1 1.01216 0.452459 4.31514 
79 2 2.47583 2.90697 1.75561 
80 2 2.56485 3.21023 2.86012 
81 1 2.66547 2.35938 2.98012 
82 1 0.561057 0.169268 0.976194 
83 1 2.96044 4.05755 0.453394 
84 1 2.94308 0.653086 3.29339 
85 1 0.191361 2.28167 2.08457 
86 1 3.23979 2.21073 1.45402 
87 1 3.0666 1.62057 0.60236 
88 1 1.81238 0.415946 3.56764 
89 2 3.36366 3.56425 2.00294 
90 2 3.80539 3.63165 0.768892 
91 1 0.039728 0.491409 4.00547 
92 1 4.16228 3.96021 2.04626 
93 1 2.69018 3.10752 3.74313 
94 1 2.39957 0.399362 1.91205 
95 1 3.33083 2.19143 3.82274 
96 1 3.99684 1.79401 0.081587 
97 1 2.15593 1.19695 0.145472 
98 1 1.6577 2.43088 3.47385 
99 2 3.01523 1.4767 3.05966 
100 2 0.628481 4.06148 0.212344 
