ITEM: TIMESTEP
250900
ITEM: NUMBER OF ATOMS
100
ITEM: BOX BOUNDS pp pp pp
0.0000000000000000e+00 4.3679023236814940e+00
0.0000000000000000e+00 4.3679023236814940e+00
0.0000000000000000e+00 4.3679023236814940e+00
ITEM: ATOMS id type x y z 
1 1 3.57772 1.69328 2.45794 
2 1 0.993783 1.66483 1.51286 
3 1 2.67809 4.34486 0.344833 
4 1 3.10971 0.375111 1.4937 
5 1 0.931814 2.41311 0.757629 
6 1 2.05532 1.2234 3.05702 
7 1 1.68067 3.27462 1.33473 
8 1 0.641496 3.38947 1.03778 
9 2 2.00646 0.746716 3.86788 
10 2 1.1114 4.07373 3.89357 
11 1 2.27753 3.98126 1.926 
12 1 2.26876 1.86521 0.172138 
13 1 4.19938 2.50073 2.54179 
14 1 0.661821 2.64751 3.27444 
15 1 3.94564 1.45466 4.21241 
16 1 0.157468 2.54654 1.51385 
17 1 -0.0488117 1.74938 3.25449 
18 1 1.58342 2.11483 3.01715 
19 2 4.23571 3.4219 0.577215 
20 2 4.03726 3.28728 2.17165 
21 1 1.34316 0.468547 -0.00918068 
22 1 2.81367 1.20321 3.99792 
23 1 0.621957 3.24398 2.08624 
24 1 2.87695 3.64703 1.16375 
25 1 4.18215 2.60702 0.516446 
26 1 3.05269 3.76007 3.87767 
27 1 1.29127 1.53163 0.372329 
28 1 0.356267 0.00624253 3.73346 
29 2 2.28507 1.96265 3.64801 
30 2 3.3066 2.97228 3.93203 
31 1 4.07204 2.60304 3.80067 
32 1 1.9229 0.374056 2.51519 
33 1 1.47479 2.40413 4.11698 
34 1 1.90099 1.48332 2.03802 
35 1 2.05631 0.523031 1.43362 
36 1 0.992051 0.783201 1.00339 
37 1 1.53271 3.33477 0.215561 
38 1 0.0988166 1.56829 2.02244 
39 2 0.810322 1.7877 3.36326 
40 2 3.85289 4.33158 1.5989 
41 1 3.33739 3.21175 0.410956 
42 1 1.83599 2.19193 1.32921 
43 1 0.537217 0.642289 1.98267 
44 1 0.728379 4.08134 0.284384 
45 1 1.5904 3.22837 2.46341 
46 1 2.67469 3.80552 2.85225 
47 1 2.00151 4.1704 3.90113 
48 1 4.44468 4.10272 2.15804 
49 2 2.6509 2.14787 1.73661 
50 2 3.602 2.78926 1.10181 
51 1 1.32868 0.506821 3.36877 
52 1 3.21959 2.1196 3.39173 
53 1 0.240106 0.617893 2.92497 
54 1 3.29775 3.05845 3.04217 
55 1 4.00025 3.49761 1.34188 
56 1 0.919765 2.30096 2.35959 
57 1 4.33444 3.42753 2.99726 
58 1 2.46425 2.89002 -0.0367063 
59 2 1.67743 1.33709 1.10628 
60 2 3.01556 0.129358 2.53492 
61 1 2.72388 0.924532 2.26625 
62 1 0.167351 0.64205 0.327482 
63 1 1.1793 4.11753 1.78236 
64 1 4.0397 0.91104 1.25038 
65 1 3.36333 3.77431 2.13404 
66 1 1.71753 4.20782 0.753313 
67 1 2.46774 2.98155 1.9954 
68 1 3.39869 2.7156 1.88293 
69 2 1.79026 2.55918 0.576981 
70 2 1.1147 2.62527 1.55181 
71 1 3.68559 0.955062 3.24327 
72 1 3.69906 4.22389 3.09252 
73 1 1.13122 1.23364 2.6495 
74 1 0.494453 2.01392 4.16601 
75 1 0.309337 4.32846 1.23046 
76 1 0.561877 3.08426 4.2733 
77 1 3.63153 4.2112 0.735917 
78 1 4.0758 3.62907 4.07379 
79 2 2.92117 1.38314 2.99751 
80 2 1.78871 2.40687 2.15797 
81 1 2.31564 2.86055 3.2667 
82 1 2.13713 0.93405 0.464013 
83 1 3.73402 0.275641 4.06042 
84 1 2.65093 0.354925 3.32367 
85 1 2.75607 2.64347 1.01508 
86 1 3.68177 1.86706 1.19415 
87 1 3.32776 0.858642 0.53337 
88 1 1.52798 1.40152 3.83707 
89 2 1.79485 3.9434 3.04053 
90 2 2.24131 3.36837 0.696031 
91 1 0.58092 1.01757 3.79872 
92 1 3.77265 0.68928 2.23573 
93 1 1.39652 3.27815 3.49113 
94 1 0.818252 3.97693 2.8739 
95 1 2.60407 2.10904 2.57464 
96 1 0.250537 1.65261 0.754617 
97 1 2.66498 1.46174 1.19955 
98 1 3.27097 2.18783 4.49337 
99 2 3.33685 1.29968 1.71564 
100 2 1.31092 0.828931 1.88498 
