ITEM: TIMESTEP
270400
ITEM: NUMBER OF ATOMS
100
ITEM: BOX BOUNDS pp pp pp
0.0000000000000000e+00 4.3679023236814940e+00
0.0000000000000000e+00 4.3679023236814940e+00
0.0000000000000000e+00 4.3679023236814940e+00
ITEM: ATOMS id type x y z 
1 1 3.52593 1.42593 2.30443 
2 1 0.89307 1.59879 1.29874 
3 1 3.02396 0.3723 4.15337 
4 1 2.86714 0.391212 1.26211 
5 1 0.995104 2.44743 0.696811 
6 1 2.1312 1.12089 3.16652 
7 1 1.8055 3.24587 1.23268 
8 1 0.563718 3.33002 0.928759 
9 2 2.25113 0.636959 3.93185 
10 2 1.19545 4.15035 4.0813 
11 1 2.24228 4.05975 2.04266 
12 1 2.24155 1.92454 0.380883 
13 1 4.29405 2.46746 2.58336 
14 1 0.900036 2.79591 3.10071 
15 1 3.84459 1.29541 4.08051 
16 1 0.17084 2.40888 1.40659 
17 1 4.32196 1.544 3.1212 
18 1 1.59514 2.0176 3.09431 
19 2 4.1639 3.67014 0.67117 
20 2 3.98286 3.1816 2.24529 
21 1 1.32072 0.475189 0.169297 
22 1 2.82059 1.3991 4.0164 
23 1 0.544686 3.22324 2.06733 
24 1 2.84165 3.6787 1.20736 
25 1 -0.0439972 2.76376 0.332031 
26 1 3.05201 3.68474 3.92378 
27 1 0.847499 1.48326 0.294171 
28 1 0.505228 4.16277 3.6062 
29 2 2.29038 1.9215 3.599 
30 2 3.55151 2.88609 4.02128 
31 1 4.25459 2.46768 3.68716 
32 1 1.60515 0.501743 2.40053 
33 1 1.6729 2.57253 4.0561 
34 1 2.01176 1.57943 2.25051 
35 1 1.79649 0.877824 1.49297 
36 1 0.8156 0.623393 1.02143 
37 1 1.34104 3.61315 0.380634 
38 1 0.211323 1.50965 2.13575 
39 2 0.759413 1.97245 2.87958 
40 2 3.53428 4.17468 1.50401 
41 1 3.41473 3.23027 0.438548 
42 1 1.83413 2.17126 1.38293 
43 1 0.62836 0.566326 2.04629 
44 1 0.442489 4.1717 0.243003 
45 1 1.54034 3.33693 2.40593 
46 1 2.47837 3.49414 3.00615 
47 1 2.05356 4.16594 4.12271 
48 1 4.29631 3.98877 2.22944 
49 2 2.64673 2.09926 1.96389 
50 2 3.70611 2.60298 0.963915 
51 1 1.42217 0.380224 3.48145 
52 1 3.37963 1.9434 3.33426 
53 1 0.0578987 0.498704 2.93012 
54 1 3.45883 3.02376 3.07456 
55 1 3.87486 3.33613 1.39264 
56 1 0.99648 2.26526 2.09845 
57 1 0.0829927 3.40198 3.06051 
58 1 2.35726 3.36223 0.295078 
59 2 1.64376 1.22276 0.734126 
60 2 2.89006 4.34387 2.51045 
61 1 2.58997 0.737774 2.26167 
62 1 -0.0164332 0.710086 0.418979 
63 1 1.25742 4.04359 1.60234 
64 1 4.20033 0.814307 1.48689 
65 1 3.27414 3.65162 2.23051 
66 1 2.00495 4.23562 0.862602 
67 1 2.44441 3.01802 2.06424 
68 1 3.38435 2.59888 2.0456 
69 2 1.8984 2.64006 0.57148 
70 2 1.0444 2.82353 1.46044 
71 1 3.31854 0.808532 3.16088 
72 1 3.61218 4.08987 3.14295 
73 1 1.04594 1.14894 2.92577 
74 1 0.786292 1.97395 3.79224 
75 1 0.139107 4.22807 1.27042 
76 1 0.666415 3.15159 4.06155 
77 1 3.64691 4.3168 0.649529 
78 1 4.11361 3.57465 4.12426 
79 2 2.83383 1.50968 2.78427 
80 2 1.84238 2.49839 2.38873 
81 1 2.68304 2.58351 4.03415 
82 1 2.36054 0.846171 0.440273 
83 1 3.96024 0.227668 3.92976 
84 1 2.45202 0.18463 3.21975 
85 1 2.74094 2.63882 1.06868 
86 1 3.61091 1.86071 1.3414 
87 1 3.37069 1.0768 0.657455 
88 1 1.65874 1.285 4.04216 
89 2 1.82804 4.13144 2.85496 
90 2 2.79934 4.10743 0.304277 
91 1 0.494496 0.902975 3.85208 
92 1 3.60514 0.391788 2.23304 
93 1 1.39291 3.64294 3.42902 
94 1 0.908577 4.10337 2.64593 
95 1 2.56961 2.39799 2.90065 
96 1 4.28018 1.74399 0.5894 
97 1 2.62814 1.50796 1.34776 
98 1 3.35781 2.11282 0.29676 
99 2 3.3271 1.06915 1.58557 
100 2 1.22169 1.27571 2.06998 
