ITEM: TIMESTEP
275700
ITEM: NUMBER OF ATOMS
100
ITEM: BOX BOUNDS pp pp pp
0.0000000000000000e+00 4.3679023236814940e+00
0.0000000000000000e+00 4.3679023236814940e+00
0.0000000000000000e+00 4.3679023236814940e+00
ITEM: ATOMS id type x y z 
1 1 3.5637 1.56902 2.21798 
2 1 0.854708 1.67351 1.38267 
3 1 2.90324 0.323569 4.1841 
4 1 2.91228 0.378639 1.20413 
5 1 1.01828 2.49617 0.72875 
6 1 2.20705 0.98337 3.0821 
7 1 1.76428 3.2905 1.28238 
8 1 0.610009 3.41087 1.11727 
9 2 2.08155 0.543694 3.86263 
10 2 1.14538 4.02824 3.97923 
11 1 2.22583 4.0929 1.88604 
12 1 2.2661 1.98947 0.28678 
13 1 4.14377 2.37162 2.65778 
14 1 0.752205 2.65538 3.1885 
15 1 3.95505 1.32279 4.10753 
16 1 0.11623 2.3754 1.53519 
17 1 4.61331 1.69499 3.3126 
18 1 1.71277 2.29886 3.11367 
19 2 4.15662 3.56523 0.576062 
20 2 3.97058 3.23918 2.33603 
21 1 1.35488 0.382416 0.092249 
22 1 2.77648 1.38248 3.93571 
23 1 0.47467 3.16056 2.19909 
24 1 2.899 3.61838 1.16755 
25 1 -0.0371221 2.75743 0.526736 
26 1 2.97077 3.61398 3.81484 
27 1 1.0788 1.39872 0.406254 
28 1 0.411569 4.24445 3.54044 
29 2 2.34957 1.83488 3.34465 
30 2 3.34748 2.8612 3.90238 
31 1 4.11729 2.53338 3.78063 
32 1 1.63394 0.458881 2.41067 
33 1 1.55681 2.66915 4.12252 
34 1 1.98939 1.58195 2.27165 
35 1 1.82807 0.817644 1.4112 
36 1 0.854631 0.669577 1.09736 
37 1 1.33385 3.59169 0.378102 
38 1 0.22484 1.52211 2.23624 
39 2 1.10556 1.86233 3.49908 
40 2 3.56963 4.14845 1.47668 
41 1 3.36019 3.2048 0.337819 
42 1 1.81243 2.26271 1.4295 
43 1 0.597125 0.590705 2.11919 
44 1 0.434417 4.1428 0.337967 
45 1 1.48905 3.24506 2.3102 
46 1 2.37665 3.31879 2.99234 
47 1 2.04881 4.07729 4.0839 
48 1 4.3139 4.09171 2.32569 
49 2 2.72361 2.18099 1.82322 
50 2 3.57924 2.70224 1.08357 
51 1 1.3707 0.305905 3.39446 
52 1 3.47178 1.85747 3.25713 
53 1 -0.0441506 0.621948 2.9878 
54 1 3.40867 3.07478 3.0051 
55 1 3.98365 3.38992 1.4513 
56 1 1.09027 2.2229 2.2828 
57 1 0.0234355 3.35168 3.08189 
58 1 2.32621 3.18987 0.236496 
59 2 1.84066 1.57593 0.906742 
60 2 3.0629 4.53413 2.58057 
61 1 2.65404 0.795746 2.12048 
62 1 -0.0198505 0.690403 0.490758 
63 1 1.19265 4.1456 1.64819 
64 1 4.21426 1.04823 1.406 
65 1 3.27941 3.74611 2.1952 
66 1 2.06831 4.22132 0.815643 
67 1 2.5038 3.05421 2.00422 
68 1 3.47072 2.6253 1.93636 
69 2 1.80768 2.60793 0.658918 
70 2 0.991761 2.73356 1.60671 
71 1 3.34119 0.801327 3.19656 
72 1 3.59605 4.13955 3.11098 
73 1 1.13798 1.25044 2.92651 
74 1 0.616749 2.13756 4.16862 
75 1 0.0262041 4.3957 1.32397 
76 1 0.614693 3.23419 4.07155 
77 1 3.66165 4.26496 0.586608 
78 1 3.98601 3.60225 4.02973 
79 2 2.8778 1.3477 2.72394 
80 2 1.93736 2.4565 2.29583 
81 1 2.57753 2.55438 3.77181 
82 1 2.231 0.930456 0.407334 
83 1 3.91901 0.241536 3.98562 
84 1 2.52947 0.00487914 3.2374 
85 1 2.73772 2.5418 1.02885 
86 1 3.5808 1.82691 1.19877 
87 1 3.29198 1.06082 0.566955 
88 1 1.66408 1.36579 3.91243 
89 2 1.79556 4.05651 2.87017 
90 2 2.83839 3.9514 0.308502 
91 1 0.569647 0.868858 3.92006 
92 1 3.64134 0.456516 2.02355 
93 1 1.45337 3.43398 3.37779 
94 1 0.888901 4.11364 2.68367 
95 1 2.73192 2.28231 2.70206 
96 1 4.41076 1.7002 0.609153 
97 1 2.59781 1.51024 1.3001 
98 1 3.32254 2.05974 0.169146 
99 2 3.27386 1.04587 1.53528 
100 2 1.18783 1.26757 2.08302 
