ITEM: TIMESTEP
220700
ITEM: NUMBER OF ATOMS
100
ITEM: BOX BOUNDS pp pp pp
0.0000000000000000e+00 4.3679023236814940e+00
0.0000000000000000e+00 4.3679023236814940e+00
0.0000000000000000e+00 4.3679023236814940e+00
ITEM: ATOMS id type x y z 
1 1 3.37702 2.19666 2.03423 
2 1 0.922735 1.47492 1.99048 
3 1 2.4378 4.00262 0.940478 
4 1 3.11215 0.00995609 1.72388 
5 1 0.765051 2.31035 1.27338 
6 1 1.96676 1.42706 3.3522 
7 1 2.38562 3.57393 1.94759 
8 1 0.316713 4.16235 0.876299 
9 2 1.6606 0.596997 3.11339 
10 2 4.33774 2.19032 3.93081 
11 1 3.00155 0.958306 1.89259 
12 1 1.80647 1.27201 1.51127 
13 1 0.470453 3.27724 1.49768 
14 1 0.344058 1.82981 2.91417 
15 1 2.93341 1.73383 3.76762 
16 1 -0.0323004 1.9486 1.91006 
17 1 4.13464 1.35423 3.6429 
18 1 1.45388 2.3418 3.38044 
19 2 1.4877 2.49741 4.31394 
20 2 4.04185 3.42371 0.779861 
21 1 0.687957 0.684078 0.246028 
22 1 2.37092 0.940615 -0.0404343 
23 1 0.737386 2.56444 2.29521 
24 1 2.45537 2.94822 0.987157 
25 1 0.498556 3.27351 0.348832 
26 1 3.14479 3.4849 3.94486 
27 1 1.07347 1.46551 0.708853 
28 1 1.28644 3.28329 3.762 
29 2 2.33952 1.41524 0.630707 
30 2 3.13198 2.60914 4.12328 
31 1 4.03469 3.10868 -0.247412 
32 1 2.05148 1.02452 2.4264 
33 1 1.84661 2.20148 0.766558 
34 1 1.66266 1.99148 2.42361 
35 1 0.893111 0.699081 1.30714 
36 1 4.45623 1.50843 0.349196 
37 1 0.704702 2.29028 0.134014 
38 1 0.0610586 0.924112 2.03797 
39 2 4.00736 2.32477 2.66049 
40 2 4.32058 0.82046 2.93883 
41 1 3.28582 2.9703 0.464289 
42 1 2.39164 2.49551 1.95824 
43 1 0.631314 4.29092 2.09668 
44 1 1.03159 4.06129 0.0503521 
45 1 1.68215 3.10286 2.65801 
46 1 2.8766 3.95554 2.7056 
47 1 2.06171 4.11638 4.22596 
48 1 0.700147 3.4555 2.78089 
49 2 3.21125 2.53865 1.14619 
50 2 0.0295075 4.02742 4.45416 
51 1 1.16052 4.27615 3.36951 
52 1 3.57948 2.34805 3.4056 
53 1 0.0113013 4.26563 2.87412 
54 1 3.8791 3.30089 3.11492 
55 1 3.54998 4.07537 0.723961 
56 1 0.490572 2.68869 3.48999 
57 1 4.21149 3.04958 2.21077 
58 1 1.59387 3.27295 0.420237 
59 2 1.25555 0.432203 2.0674 
60 2 0.346024 1.43542 1.30237 
61 1 3.31101 0.745005 3.66955 
62 1 3.74549 4.20528 3.65205 
63 1 2.05375 0.300128 1.66492 
64 1 3.58245 1.61498 1.11227 
65 1 3.44107 3.2957 1.49147 
66 1 1.3585 4.0799 1.22768 
67 1 3.12581 3.05958 2.41517 
68 1 4.09357 2.58865 1.15717 
69 2 1.13995 3.56808 1.9629 
70 2 1.50722 2.12477 1.55168 
71 1 3.6267 1.38442 2.65293 
72 1 3.45231 0.386832 2.71143 
73 1 0.850958 0.75467 2.6889 
74 1 0.817769 1.51167 3.85239 
75 1 3.86105 0.61298 1.19067 
76 1 1.70898 1.67516 4.30981 
77 1 4.02595 0.506459 0.0674613 
78 1 0.392017 3.78414 3.68441 
79 2 3.6867 3.84164 2.47107 
80 2 2.90313 2.90498 3.26564 
81 1 2.35493 2.62783 3.93044 
82 1 1.75577 0.660567 0.705932 
83 1 3.01166 4.41515 5.93338e-05 
84 1 2.36004 0.257291 3.43739 
85 1 1.53908 3.03302 1.46702 
86 1 2.68046 1.77455 1.27589 
87 1 3.36619 1.19995 0.252828 
88 1 1.49209 0.631595 3.97572 
89 2 2.61169 0.331465 2.38574 
90 2 2.39667 3.35506 0.178468 
91 1 0.372286 0.510566 3.59353 
92 1 4.12512 3.99251 1.72426 
93 1 2.30157 3.46846 3.34858 
94 1 1.77761 4.37174 2.54372 
95 1 2.5697 2.14672 2.86538 
96 1 3.71153 2.14272 0.0701063 
97 1 2.7942 0.709636 0.913944 
98 1 2.73182 2.14201 0.355971 
99 2 2.8093 0.964636 3.01763 
100 2 1.17009 1.57458 2.99778 
