ITEM: TIMESTEP
221200
ITEM: NUMBER OF ATOMS
100
ITEM: BOX BOUNDS pp pp pp
0.0000000000000000e+00 4.3679023236814940e+00
0.0000000000000000e+00 4.3679023236814940e+00
0.0000000000000000e+00 4.3679023236814940e+00
ITEM: ATOMS id type x y z 
1 1 3.40948 2.38955 2.02441 
2 1 0.839115 1.52256 2.17182 
3 1 2.45881 4.02063 0.783466 
4 1 3.18204 0.0991531 1.68659 
5 1 0.990625 2.0779 1.2584 
6 1 2.09993 1.5523 3.46641 
7 1 2.33991 3.66576 1.7711 
8 1 0.30094 4.23278 0.887541 
9 2 1.66059 0.396863 3.0415 
10 2 0.166261 2.24165 3.78221 
11 1 3.37198 1.09003 2.01819 
12 1 1.63254 1.20621 1.54574 
13 1 0.598336 3.4702 1.55243 
14 1 0.474255 1.61456 3.06615 
15 1 3.04257 1.66351 3.78179 
16 1 4.31815 1.94332 2.07899 
17 1 4.21889 1.4248 3.9084 
18 1 1.28721 2.34637 3.07767 
19 2 0.897565 3.03392 0.753565 
20 2 4.18518 3.49413 1.21564 
21 1 0.848075 0.473061 0.276732 
22 1 2.31923 1.40691 4.52184 
23 1 0.797322 2.58115 2.06817 
24 1 2.55114 3.03633 0.805434 
25 1 0.143312 3.23546 0.507022 
26 1 2.99858 3.32148 3.85844 
27 1 1.29423 1.41137 0.546685 
28 1 0.936815 3.02708 3.80093 
29 2 2.17921 1.43523 0.971031 
30 2 3.37584 2.50876 4.1136 
31 1 4.05578 2.9656 3.93806 
32 1 2.23292 0.865279 2.31183 
33 1 1.97548 2.19274 0.751372 
34 1 1.85224 1.75108 2.48229 
35 1 0.530914 0.861293 1.42589 
36 1 0.200218 1.34787 0.48165 
37 1 0.587809 2.3534 0.17823 
38 1 4.34194 0.894303 2.28641 
39 2 4.00175 2.36875 2.76141 
40 2 4.2145 0.750251 3.09937 
41 1 3.5336 3.08475 0.370408 
42 1 2.51378 2.69306 1.68947 
43 1 0.809091 4.33639 1.96646 
44 1 0.735135 3.91221 0.00244376 
45 1 1.72235 3.05429 2.33183 
46 1 2.64603 3.97635 3.05257 
47 1 2.03159 4.14218 4.056 
48 1 0.809722 3.53483 2.65705 
49 2 3.26308 2.49258 1.16834 
50 2 -0.0807962 4.00269 4.47773 
51 1 1.03216 4.23077 3.3343 
52 1 3.39921 2.51598 3.28268 
53 1 0.0885875 4.36973 2.77156 
54 1 3.7409 3.61524 2.90812 
55 1 3.59989 4.09823 0.709336 
56 1 0.282596 2.76249 3.16096 
57 1 4.21043 3.05424 2.17105 
58 1 1.63943 3.07069 0.186528 
59 2 1.47734 0.709408 2.16849 
60 2 0.290327 1.61108 1.36984 
61 1 3.4636 0.619107 3.62653 
62 1 3.65021 4.03376 3.98737 
63 1 1.90175 0.171015 1.50166 
64 1 3.64431 1.64497 1.15764 
65 1 3.37621 3.3806 1.40639 
66 1 1.41338 3.90123 0.756024 
67 1 2.74966 3.06036 2.63372 
68 1 4.34697 2.51849 1.20212 
69 2 1.50913 3.70392 1.76489 
70 2 1.81909 2.14903 1.56175 
71 1 3.7631 1.60671 2.90587 
72 1 3.41398 0.281665 2.69607 
73 1 0.892425 0.653485 2.73812 
74 1 0.913369 1.4451 3.98183 
75 1 3.94045 0.622975 1.19141 
76 1 1.50621 2.21085 4.14877 
77 1 4.16525 0.453879 0.205418 
78 1 0.127866 3.79695 3.61043 
79 2 3.22407 3.71826 2.20348 
80 2 2.13685 2.45569 2.7656 
81 1 2.48782 2.41169 3.94336 
82 1 1.90659 0.473081 0.43128 
83 1 2.8744 0.37315 4.43463 
84 1 2.42657 0.592004 3.38809 
85 1 1.54684 2.88017 1.33246 
86 1 2.62198 1.76014 1.65159 
87 1 3.4172 1.14824 0.221893 
88 1 1.54448 0.615011 3.86359 
89 2 2.56447 0.0239143 2.35198 
90 2 2.48377 3.50143 4.44043 
91 1 0.408336 0.568698 3.66912 
92 1 4.07827 4.05242 1.8556 
93 1 1.88831 3.37863 3.33893 
94 1 1.71508 4.10273 2.45516 
95 1 2.77801 1.88963 2.71082 
96 1 3.9389 2.10137 0.259576 
97 1 2.7435 0.871466 1.16104 
98 1 2.96011 2.10881 0.529091 
99 2 2.94257 1.03571 2.9487 
100 2 1.34333 1.33371 3.1335 
