ITEM: TIMESTEP
288900
ITEM: NUMBER OF ATOMS
100
ITEM: BOX BOUNDS pp pp pp
0.0000000000000000e+00 4.3679023236814940e+00
0.0000000000000000e+00 4.3679023236814940e+00
0.0000000000000000e+00 4.3679023236814940e+00
ITEM: ATOMS id type x y z 
1 1 3.51828 1.53715 2.18236 
2 1 0.873359 1.58234 1.38377 
3 1 2.85576 0.303668 4.23099 
4 1 2.87497 0.397753 1.18615 
5 1 1.00919 2.45158 0.739022 
6 1 2.19774 1.02305 3.13176 
7 1 1.75229 3.27627 1.26044 
8 1 0.625523 3.3907 1.0913 
9 2 2.07772 0.618363 3.96012 
10 2 1.08604 3.98139 4.04555 
11 1 2.27336 4.05682 2.09181 
12 1 2.30584 1.95125 0.246856 
13 1 4.19414 2.41915 2.65642 
14 1 0.752368 2.6547 3.14213 
15 1 3.99819 1.44177 4.09256 
16 1 0.135755 2.39204 1.54481 
17 1 4.62903 1.66012 3.25231 
18 1 1.72672 2.32494 3.15757 
19 2 4.17386 3.65358 0.576698 
20 2 3.99012 3.21702 2.3565 
21 1 1.31882 0.354757 0.123853 
22 1 2.84024 1.32987 3.93651 
23 1 0.481086 3.18345 2.1805 
24 1 2.80314 3.67649 1.21496 
25 1 -0.00209455 2.77307 0.495381 
26 1 2.93967 3.63728 3.84221 
27 1 1.12243 1.41118 0.411638 
28 1 0.425823 4.301 3.62761 
29 2 2.36608 1.82793 3.4346 
30 2 3.40284 2.90053 3.98124 
31 1 4.14795 2.52913 3.72301 
32 1 1.58826 0.422535 2.40588 
33 1 1.54131 2.49905 4.21796 
34 1 2.0082 1.63248 2.30367 
35 1 1.74498 0.876819 1.41969 
36 1 0.824247 0.583853 1.04487 
37 1 1.35578 3.46728 0.318099 
38 1 0.303016 1.47719 2.22655 
39 2 1.08185 1.86095 3.54075 
40 2 3.50532 4.20159 1.43034 
41 1 3.39517 3.26322 0.469152 
42 1 1.8143 2.24513 1.47884 
43 1 0.534585 0.479384 2.05111 
44 1 0.480279 4.13464 0.308666 
45 1 1.49314 3.24383 2.31313 
46 1 2.35982 3.30828 2.94649 
47 1 2.02639 4.04482 4.07861 
48 1 4.2412 4.04654 2.2644 
49 2 2.64529 2.13016 1.87843 
50 2 3.68547 2.71819 1.047 
51 1 1.43997 0.242327 3.41717 
52 1 3.45579 1.84447 3.23203 
53 1 -0.0178127 0.647421 2.90375 
54 1 3.43397 2.99475 3.10101 
55 1 3.9831 3.42944 1.40367 
56 1 1.03917 2.18836 2.25947 
57 1 0.0311721 3.4309 3.13599 
58 1 2.36217 3.15054 0.245574 
59 2 1.79854 1.62046 0.897397 
60 2 3.02744 4.4099 2.53394 
61 1 2.62179 0.781047 2.14853 
62 1 0.0613465 0.719032 0.335973 
63 1 1.24868 4.1201 1.6831 
64 1 4.2211 1.04226 1.36227 
65 1 3.265 3.64584 2.17065 
66 1 1.94064 4.25079 0.842988 
67 1 2.4671 3.00168 1.92958 
68 1 3.45663 2.62863 1.94481 
69 2 1.88127 2.59286 0.68571 
70 2 1.08753 2.78991 1.61154 
71 1 3.21671 0.795503 3.09209 
72 1 3.59495 4.14204 3.09278 
73 1 1.18556 1.29705 2.93583 
74 1 0.583454 2.11248 4.18563 
75 1 0.0151917 4.34604 1.22841 
76 1 0.564291 3.21279 4.05384 
77 1 3.59282 4.30388 0.543291 
78 1 4.00025 3.68778 4.05824 
79 2 2.80313 1.47564 2.65583 
80 2 1.89532 2.50074 2.30647 
81 1 2.62416 2.58727 3.77552 
82 1 2.16625 0.909973 0.447041 
83 1 3.88884 0.397351 3.91567 
84 1 2.4478 -0.0345384 3.19681 
85 1 2.74861 2.51818 1.02543 
86 1 3.57993 1.87967 1.19416 
87 1 3.37095 1.06543 0.520794 
88 1 1.73227 1.41368 3.94265 
89 2 1.7374 3.97441 2.79628 
90 2 2.7383 3.96709 0.409452 
91 1 0.721905 1.00134 3.89028 
92 1 3.62518 0.475748 2.00939 
93 1 1.41319 3.41691 3.44285 
94 1 0.89415 4.03434 2.70913 
95 1 2.68706 2.33207 2.72359 
96 1 4.4534 1.74906 0.656458 
97 1 2.62041 1.50098 1.28513 
98 1 3.44202 2.23165 0.184762 
99 2 3.36691 1.04197 1.41793 
100 2 1.24473 1.16515 2.10645 
