ITEM: TIMESTEP
234100
ITEM: NUMBER OF ATOMS
100
ITEM: BOX BOUNDS pp pp pp
0.0000000000000000e+00 4.3679023236814940e+00
0.0000000000000000e+00 4.3679023236814940e+00
0.0000000000000000e+00 4.3679023236814940e+00
ITEM: ATOMS id type x y z 
1 1 3.38598 1.69715 1.81298 
2 1 0.674152 1.48131 1.39164 
3 1 2.70038 0.395359 0.745376 
4 1 3.55297 0.0932206 1.51091 
5 1 1.1287 2.52181 0.877369 
6 1 2.47189 1.23999 3.25399 
7 1 1.94037 3.42753 1.78285 
8 1 0.849858 3.53444 1.00031 
9 2 2.05947 0.572464 3.70109 
10 2 1.35594 4.19356 3.9802 
11 1 2.51258 0.0815858 1.79655 
12 1 1.93371 1.77646 0.731723 
13 1 3.90119 2.39912 2.34158 
14 1 4.1667 1.81308 3.14279 
15 1 3.63922 1.8213 4.0559 
16 1 4.59242 2.41756 1.62541 
17 1 0.1511 1.38366 4.106 
18 1 1.7296 2.14935 3.19431 
19 2 0.314557 3.23033 4.11286 
20 2 0.025588 3.21674 2.2718 
21 1 1.03092 0.0103373 0.427325 
22 1 2.58775 1.28689 4.43817 
23 1 0.874695 3.23599 1.95924 
24 1 2.97441 3.62675 1.3699 
25 1 -0.0341461 2.899 0.665346 
26 1 3.04974 3.76972 3.74196 
27 1 0.96844 1.55758 0.445116 
28 1 0.534854 4.01461 3.76987 
29 2 2.5532 1.90217 3.76428 
30 2 3.25422 2.94145 3.90816 
31 1 4.09893 2.69008 3.77102 
32 1 1.79065 0.762856 2.16879 
33 1 1.66369 2.39453 4.25132 
34 1 1.25832 1.65861 2.32113 
35 1 1.39102 0.701015 1.2625 
36 1 0.320097 0.723632 0.481454 
37 1 1.2101 3.34106 0.0195211 
38 1 0.200382 1.48409 2.30015 
39 2 0.518247 2.07658 3.59818 
40 2 4.08591 0.13174 0.845236 
41 1 3.301 3.11765 0.333482 
42 1 1.8775 2.37762 1.59839 
43 1 0.780616 0.705323 2.26586 
44 1 0.182894 3.94278 0.355525 
45 1 1.74085 3.0629 2.70198 
46 1 2.65651 3.61396 2.6551 
47 1 2.27283 4.29323 4.24368 
48 1 0.0765608 4.22666 2.40411 
49 2 2.73306 2.08709 1.55185 
50 2 3.53175 2.36087 0.426629 
51 1 1.49909 0.259927 3.11254 
52 1 3.07561 2.05022 2.9998 
53 1 0.273629 0.594091 3.08825 
54 1 3.49641 3.13606 3.0913 
55 1 4.2229 3.65713 1.37678 
56 1 0.627951 2.4392 2.61213 
57 1 0.0939906 3.39521 3.05039 
58 1 2.21495 3.28253 4.36671 
59 2 1.49369 1.48642 1.53536 
60 2 3.11579 0.0839372 2.48033 
61 1 2.86554 0.900893 2.36303 
62 1 4.16697 0.39012 3.9765 
63 1 1.2618 4.20439 1.82959 
64 1 4.10825 1.01285 1.41134 
65 1 3.5589 3.63668 2.22219 
66 1 1.86199 4.05516 0.873387 
67 1 2.9316 2.80255 2.06873 
68 1 3.53038 2.67268 1.33779 
69 2 1.62036 3.1994 0.840547 
70 2 0.980549 2.22799 1.73049 
71 1 3.5091 1.01549 3.31079 
72 1 3.66851 4.37591 3.13857 
73 1 0.882183 1.30445 3.22073 
74 1 0.538191 2.43362 4.36412 
75 1 0.453788 0.102842 1.33519 
76 1 0.925517 2.94844 3.43989 
77 1 3.45381 4.13885 0.393503 
78 1 4.00622 3.64412 3.94155 
79 2 3.61271 1.48749 2.59878 
80 2 2.38052 2.4674 2.6862 
81 1 2.52454 2.83247 3.45503 
82 1 1.75408 0.665911 0.265862 
83 1 3.06718 0.466632 3.99531 
84 1 2.58522 0.227947 3.13006 
85 1 2.53723 2.74934 0.888411 
86 1 3.21268 1.70951 0.801701 
87 1 3.6444 0.755972 0.524973 
88 1 1.63999 1.30817 3.82449 
89 2 1.77279 3.9406 2.5075 
90 2 2.67774 3.86048 0.491066 
91 1 0.90862 0.553716 3.91549 
92 1 3.88105 0.710341 2.33716 
93 1 1.89658 3.73498 3.50379 
94 1 0.995642 3.79211 2.81886 
95 1 2.33265 1.74985 2.30314 
96 1 4.3175 1.80613 0.665915 
97 1 2.41856 1.2733 1.40202 
98 1 2.78879 2.35111 0.0176849 
99 2 3.26146 0.934258 1.37388 
100 2 1.69765 1.18333 2.92764 
