ITEM: TIMESTEP
218900
ITEM: NUMBER OF ATOMS
100
ITEM: BOX BOUNDS pp pp pp
0.0000000000000000e+00 4.3679023236814940e+00
0.0000000000000000e+00 4.3679023236814940e+00
0.0000000000000000e+00 4.3679023236814940e+00
ITEM: ATOMS id type x y z 
1 1 3.29242 2.01656 2.07992 
2 1 1.70212 1.58552 2.15282 
3 1 2.55504 4.01932 0.881677 
4 1 2.99351 3.95979 1.78456 
5 1 0.215 2.3683 1.29904 
6 1 2.0036 1.58883 3.594 
7 1 1.98279 3.48349 1.80942 
8 1 0.156718 4.33862 1.14057 
9 2 2.01253 0.212474 4.03044 
10 2 3.91834 2.98914 3.79732 
11 1 2.70904 0.977541 2.04685 
12 1 2.03998 1.26265 1.21741 
13 1 0.444526 3.34551 1.52365 
14 1 0.365436 1.43549 2.99371 
15 1 2.94355 1.49963 3.67093 
16 1 0.65112 1.47068 2.02511 
17 1 4.13306 1.48629 3.7669 
18 1 1.34192 2.29102 3.11793 
19 2 1.69254 2.28237 3.98266 
20 2 4.31949 3.12644 0.833091 
21 1 0.852693 1.03662 0.363442 
22 1 2.45719 0.900946 4.26048 
23 1 0.677967 2.48621 2.40455 
24 1 1.94933 3.14185 0.818382 
25 1 0.290471 2.84697 4.43677 
26 1 2.98485 3.20403 3.7198 
27 1 1.08498 1.68661 1.17241 
28 1 1.31717 3.16689 3.90151 
29 2 2.58539 1.52095 0.436911 
30 2 2.98609 2.35104 3.67674 
31 1 3.85033 3.54959 0.139765 
32 1 2.01237 0.852591 2.88771 
33 1 2.05349 2.22549 1.22163 
34 1 2.0136 2.59889 2.26457 
35 1 1.12413 0.684015 1.43249 
36 1 4.49843 1.88425 0.397958 
37 1 1.26733 2.48284 0.361642 
38 1 0.0767015 0.663475 1.8122 
39 2 4.34984 2.07337 2.69552 
40 2 4.03306 0.967128 3.13689 
41 1 2.8964 3.18401 0.366019 
42 1 2.87026 2.89837 1.51765 
43 1 0.720644 4.22588 2.09545 
44 1 0.748866 -0.0426168 4.56297 
45 1 1.4582 3.29166 2.82519 
46 1 2.98755 3.90348 2.75832 
47 1 1.79218 3.88098 4.50715 
48 1 0.455805 3.42957 2.61364 
49 2 2.72498 2.45164 0.786585 
50 2 4.18272 0.0362765 -0.00906793 
51 1 1.02101 4.17108 3.41615 
52 1 3.61161 2.1999 3.10099 
53 1 0.0948612 0.207049 2.89994 
54 1 3.83264 3.34668 2.98609 
55 1 3.51388 4.36141 0.646654 
56 1 0.269079 2.53957 3.38345 
57 1 4.04336 2.81855 2.05262 
58 1 0.829521 3.39294 0.603573 
59 2 1.62677 0.665883 2.12929 
60 2 0.362511 1.23053 1.11724 
61 1 3.5937 0.776277 4.02583 
62 1 3.67353 4.24902 3.57769 
63 1 2.17625 0.171046 1.58079 
64 1 3.94943 1.44947 1.34164 
65 1 3.70937 3.55604 1.18133 
66 1 1.32267 3.97313 1.28972 
67 1 3.01768 2.83218 2.55354 
68 1 3.66942 2.52304 0.86066 
69 2 1.11087 3.48427 2.09884 
70 2 2.48959 1.95827 1.94381 
71 1 3.88463 1.29293 2.40072 
72 1 3.5107 0.423168 2.69263 
73 1 0.974306 0.63101 2.68406 
74 1 1.02111 1.82406 3.94187 
75 1 3.52729 0.385121 1.58353 
76 1 1.75206 1.51831 0.259683 
77 1 4.31874 0.724479 0.441387 
78 1 0.221587 3.65485 3.75969 
79 2 3.42239 3.37235 2.15864 
80 2 2.36289 3.46174 2.52149 
81 1 2.27465 2.69053 3.28974 
82 1 1.70623 0.487648 0.585012 
83 1 2.82997 4.25682 4.22524 
84 1 2.77316 0.495279 3.30545 
85 1 1.24164 2.69798 1.55148 
86 1 2.92628 1.69526 1.22627 
87 1 3.47079 1.44668 0.404612 
88 1 1.35678 0.664793 3.67106 
89 2 2.6382 0.240833 2.44876 
90 2 2.21306 3.13033 4.23388 
91 1 0.364965 0.612371 3.86452 
92 1 4.0835 3.98779 2.12477 
93 1 2.14064 3.89647 3.4891 
94 1 1.84202 4.30396 2.49441 
95 1 2.62134 1.85788 2.79929 
96 1 3.68309 2.31548 4.1835 
97 1 2.79897 0.636405 0.85781 
98 1 2.45619 2.30411 4.42804 
99 2 3.23178 1.22887 2.92813 
100 2 1.31 1.35643 3.1374 
