ITEM: TIMESTEP
234000
ITEM: NUMBER OF ATOMS
100
ITEM: BOX BOUNDS pp pp pp
0.0000000000000000e+00 4.3679023236814940e+00
0.0000000000000000e+00 4.3679023236814940e+00
0.0000000000000000e+00 4.3679023236814940e+00
ITEM: ATOMS id type x y z 
1 1 3.34881 1.62693 1.82929 
2 1 0.832686 1.50826 1.20931 
3 1 2.80554 0.573524 0.759747 
4 1 3.49421 0.160809 1.51352 
5 1 1.33898 2.49524 1.03899 
6 1 2.43754 1.01611 3.21688 
7 1 1.97762 3.34293 1.65842 
8 1 0.875206 3.54133 1.09334 
9 2 2.19148 0.689484 3.94438 
10 2 1.46683 4.36381 4.02506 
11 1 2.42505 0.0801825 1.89703 
12 1 1.93295 1.65385 0.787887 
13 1 3.77096 2.42784 2.32524 
14 1 4.13715 1.96359 3.19987 
15 1 3.57835 1.74881 4.1212 
16 1 4.46826 2.32829 1.4131 
17 1 0.162787 1.40323 3.99138 
18 1 1.53852 2.18167 3.09013 
19 2 0.412177 3.30243 4.23494 
20 2 0.0606026 3.05866 1.89059 
21 1 1.13438 0.124916 0.479392 
22 1 2.65756 1.28024 4.2558 
23 1 0.806958 3.26408 2.02651 
24 1 3.01821 3.44385 1.39879 
25 1 -0.137773 2.97043 0.570163 
26 1 2.81449 3.75298 3.69071 
27 1 1.08661 1.54142 0.230387 
28 1 0.640628 4.09763 3.72305 
29 2 2.28156 1.8792 3.72942 
30 2 3.23763 2.67991 3.87617 
31 1 4.10429 2.61225 3.94444 
32 1 1.86142 0.743502 2.31005 
33 1 1.69856 2.49412 4.29169 
34 1 1.23385 1.66799 2.33863 
35 1 1.51359 0.756595 1.29733 
36 1 0.372754 0.778214 0.526554 
37 1 1.235 3.54588 0.103595 
38 1 0.166784 1.62477 2.21834 
39 2 0.474317 2.11995 3.60769 
40 2 4.14181 0.326083 0.849448 
41 1 3.30273 3.22828 0.289529 
42 1 1.83417 2.3593 1.86557 
43 1 0.800808 0.77235 2.3479 
44 1 0.259782 4.02169 0.325202 
45 1 1.72369 3.12954 2.64621 
46 1 2.72601 3.5968 2.49204 
47 1 2.24447 4.35854 4.38952 
48 1 0.161006 3.98629 2.17029 
49 2 2.4876 2.01184 1.45793 
50 2 3.62151 2.25573 0.360401 
51 1 1.49379 0.371142 3.25678 
52 1 3.01772 2.05243 3.26704 
53 1 0.326322 0.5582 3.15814 
54 1 3.27821 2.98265 3.05189 
55 1 4.16891 3.67068 1.2466 
56 1 0.520347 2.46207 2.55915 
57 1 -0.0307337 3.25342 2.91734 
58 1 2.20175 3.32273 4.44349 
59 2 1.60226 1.55103 1.61568 
60 2 3.16348 -0.0252091 2.33186 
61 1 3.11951 0.861375 2.44685 
62 1 4.16791 0.41626 4.00818 
63 1 1.28565 4.23262 1.93343 
64 1 4.19 1.02566 1.36802 
65 1 3.70317 3.42564 2.10619 
66 1 1.88762 4.07739 0.932581 
67 1 2.84586 2.63368 2.03 
68 1 3.54821 2.59864 1.14389 
69 2 1.66203 3.23603 0.9045 
70 2 0.91342 2.27473 1.81955 
71 1 3.60938 1.04929 3.32597 
72 1 3.69366 4.20456 2.94625 
73 1 0.787205 1.52676 3.19804 
74 1 0.672481 2.54793 4.53207 
75 1 0.545839 0.166099 1.30283 
76 1 0.844203 2.94914 3.52259 
77 1 3.59596 4.15645 0.47921 
78 1 3.92335 3.6474 3.89968 
79 2 3.62271 1.59381 2.64539 
80 2 2.34062 2.49041 2.65724 
81 1 2.27097 2.75143 3.48044 
82 1 1.79109 0.804419 0.343141 
83 1 3.05759 0.317227 3.88471 
84 1 2.44313 0.0549215 2.96219 
85 1 2.44296 2.75872 0.959658 
86 1 3.07127 1.73545 0.808809 
87 1 3.67524 0.934939 0.393241 
88 1 1.58766 1.37416 3.83581 
89 2 1.92469 3.94233 2.62564 
90 2 2.71279 3.75892 0.717008 
91 1 0.863784 0.663409 4.06731 
92 1 4.11295 0.561164 2.29928 
93 1 1.67566 3.58259 3.5515 
94 1 0.992707 3.88406 2.78142 
95 1 2.40756 1.70733 2.34678 
96 1 4.36824 1.73642 0.571124 
97 1 2.44261 1.16054 1.51979 
98 1 2.71967 2.33447 -0.0436449 
99 2 3.3635 1.0011 1.26068 
100 2 1.53164 1.18706 2.95903 
