ITEM: TIMESTEP
269600
ITEM: NUMBER OF ATOMS
100
ITEM: BOX BOUNDS pp pp pp
0.0000000000000000e+00 4.3679023236814940e+00
0.0000000000000000e+00 4.3679023236814940e+00
0.0000000000000000e+00 4.3679023236814940e+00
ITEM: ATOMS id type x y z 
1 1 3.55496 1.50451 2.30775 
2 1 0.941212 1.69327 1.37326 
3 1 2.96563 0.451959 4.30293 
4 1 2.78188 0.367008 1.17578 
5 1 1.11079 2.38744 0.611238 
6 1 2.25769 1.16697 3.19413 
7 1 1.68166 3.26587 1.36548 
8 1 0.584896 3.28044 1.09538 
9 2 2.14018 0.654657 3.91373 
10 2 1.26382 3.97878 3.97888 
11 1 2.22922 4.08932 1.97051 
12 1 2.17399 1.95089 0.394128 
13 1 4.31667 2.46086 2.64681 
14 1 0.890383 2.87026 3.11217 
15 1 3.78821 1.31648 4.10122 
16 1 0.127244 2.4127 1.49697 
17 1 4.30905 1.5212 3.153 
18 1 1.68288 2.19317 3.13378 
19 2 4.19935 3.64088 0.618278 
20 2 3.96581 3.1983 2.31961 
21 1 1.24103 0.375454 0.0863651 
22 1 2.75986 1.43732 4.13175 
23 1 0.627914 3.16984 2.08644 
24 1 2.81036 3.68235 1.19305 
25 1 -0.00785692 2.72372 0.421229 
26 1 3.02218 3.71864 3.89716 
27 1 1.04114 1.32152 0.376743 
28 1 0.509649 4.18396 3.6423 
29 2 2.24228 1.95735 3.74673 
30 2 3.44224 2.96444 3.92411 
31 1 4.18867 2.58645 3.77387 
32 1 1.63802 0.50893 2.51258 
33 1 1.61271 2.5455 4.116 
34 1 1.93844 1.6259 2.26157 
35 1 1.70772 0.791375 1.55382 
36 1 0.776976 0.551423 1.02131 
37 1 1.45545 3.42398 0.355367 
38 1 0.261505 1.49617 2.13673 
39 2 0.658431 2.03726 3.02224 
40 2 3.52165 4.18716 1.43903 
41 1 3.4289 3.22986 0.435462 
42 1 1.88557 2.2108 1.44793 
43 1 0.610154 0.517929 2.01201 
44 1 0.524533 4.05064 0.38063 
45 1 1.61966 3.26667 2.4494 
46 1 2.59459 3.54587 2.9603 
47 1 2.10733 4.11752 4.15365 
48 1 4.30887 4.00968 2.203 
49 2 2.63844 2.12385 1.83109 
50 2 3.73239 2.63899 0.981794 
51 1 1.45367 0.320475 3.46627 
52 1 3.33022 1.91838 3.28827 
53 1 0.0289983 0.459618 2.87696 
54 1 3.45998 2.98886 3.03939 
55 1 3.93363 3.37372 1.40788 
56 1 1.09346 2.25077 2.28662 
57 1 0.0541971 3.42875 3.06341 
58 1 2.40242 3.21757 0.233418 
59 2 1.71218 1.52308 0.96107 
60 2 2.85767 4.35298 2.5225 
61 1 2.63448 0.781431 2.22544 
62 1 0.00723509 0.643869 0.356961 
63 1 1.08092 4.09792 1.61902 
64 1 4.1538 0.977411 1.33685 
65 1 3.25845 3.67744 2.20453 
66 1 1.82872 4.26072 0.908437 
67 1 2.51043 2.99241 1.94485 
68 1 3.48008 2.54484 2.04911 
69 2 1.88392 2.71963 0.740667 
70 2 1.01413 2.57028 1.49938 
71 1 3.37646 0.903095 3.14713 
72 1 3.55568 4.15262 3.05636 
73 1 1.03056 1.24489 2.93779 
74 1 0.693665 1.92311 3.97675 
75 1 0.0250961 4.2944 1.23762 
76 1 0.709576 3.21281 4.06382 
77 1 3.62051 4.25472 0.546075 
78 1 4.08255 3.6172 4.09037 
79 2 2.82384 1.55096 2.67118 
80 2 1.97021 2.47586 2.30885 
81 1 2.6328 2.70696 3.72839 
82 1 2.16265 0.864603 0.433864 
83 1 3.94798 0.262579 3.88001 
84 1 2.45546 0.117575 3.24647 
85 1 2.80232 2.58272 0.974587 
86 1 3.57757 1.8485 1.30452 
87 1 3.29934 1.09505 0.619967 
88 1 1.58984 1.36746 3.9114 
89 2 1.88081 4.05414 2.72372 
90 2 2.73018 4.1273 0.386372 
91 1 0.491183 0.860018 3.78849 
92 1 3.5949 0.406251 2.08825 
93 1 1.67793 3.4615 3.44649 
94 1 0.96764 4.04484 2.76762 
95 1 2.69529 2.39772 2.74993 
96 1 4.45192 1.66403 0.612234 
97 1 2.53019 1.40502 1.311 
98 1 3.42944 2.23589 0.151632 
99 2 3.28897 1.05546 1.57769 
100 2 1.14708 1.23372 2.10329 
