ITEM: TIMESTEP
212800
ITEM: NUMBER OF ATOMS
100
ITEM: BOX BOUNDS pp pp pp
0.0000000000000000e+00 4.3679023236814940e+00
0.0000000000000000e+00 4.3679023236814940e+00
0.0000000000000000e+00 4.3679023236814940e+00
ITEM: ATOMS id type x y z 
1 1 4.02989 2.18935 2.96761 
2 1 1.65546 0.96879 2.06472 
3 1 2.62476 0.451008 0.701841 
4 1 2.62345 3.72729 2.07536 
5 1 3.4963 2.29809 0.654718 
6 1 2.66001 1.65086 3.68607 
7 1 0.86372 3.91483 1.66599 
8 1 0.0322831 3.31809 1.46008 
9 2 2.42233 0.204206 2.59224 
10 2 1.04489 2.03526 3.73606 
11 1 2.199 1.26458 1.25263 
12 1 1.28958 1.1357 0.56308 
13 1 1.04448 2.98758 1.23539 
14 1 1.6504 1.82599 3.05942 
15 1 3.76368 1.30002 3.46114 
16 1 0.5557 1.20846 1.63443 
17 1 0.364938 1.50145 3.71912 
18 1 2.11863 1.85044 2.19546 
19 2 1.83952 3.33003 3.861 
20 2 0.936928 1.76397 1.08015 
21 1 0.226721 1.17213 0.579886 
22 1 1.77178 0.459557 0.128309 
23 1 0.717988 2.24363 2.96888 
24 1 2.03828 3.71826 0.247612 
25 1 0.414434 3.79593 4.10601 
26 1 3.84114 3.06419 4.24599 
27 1 4.45084 2.44396 1.09237 
28 1 1.88011 3.82176 3.04982 
29 2 1.74972 1.98994 0.101895 
30 2 3.44826 3.1788 3.42681 
31 1 4.24963 3.84331 0.61095 
32 1 2.77089 1.29015 2.66553 
33 1 1.50076 2.77296 0.283676 
34 1 1.89233 2.94633 1.83988 
35 1 0.698421 0.353972 2.27153 
36 1 3.95692 1.57615 1.48001 
37 1 1.16397 2.27699 1.9774 
38 1 4.08504 0.644607 1.83123 
39 2 -0.279495 2.87013 2.05208 
40 2 3.64342 1.02966 2.67343 
41 1 2.74575 3.26829 0.89984 
42 1 1.78685 2.19773 1.02756 
43 1 0.805672 3.93647 2.85394 
44 1 1.14844 3.93134 0.600179 
45 1 1.59637 2.82392 2.83463 
46 1 2.99154 3.85869 3.07777 
47 1 2.39555 4.43928 3.79329 
48 1 0.521398 3.05272 2.30104 
49 2 3.18668 1.72858 4.42729 
50 2 2.39143 0.870656 3.83476 
51 1 1.66621 0.0132231 2.2378 
52 1 4.56506 2.46653 3.84945 
53 1 4.27171 0.464943 3.019 
54 1 4.28572 3.25946 3.13548 
55 1 3.13147 4.05483 1.28292 
56 1 0.943963 3.09862 3.56532 
57 1 3.43005 2.96169 1.52183 
58 1 1.35867 4.03149 3.92812 
59 2 1.34247 0.142484 2.97969 
60 2 -0.364482 -0.300946 1.36399 
61 1 3.13432 0.824474 -0.146039 
62 1 3.78594 3.99516 3.76409 
63 1 1.397 0.402893 1.24804 
64 1 3.29486 2.06339 2.1566 
65 1 0.483315 2.99474 0.380558 
66 1 1.82262 3.89323 1.34767 
67 1 3.38272 2.94929 2.6461 
68 1 2.57222 2.44595 4.64618 
69 2 1.49784 3.6007 2.08216 
70 2 1.04849 1.6074 2.40566 
71 1 0.101735 1.32064 2.59669 
72 1 3.33971 0.0916212 2.24719 
73 1 0.98443 1.00637 3.0547 
74 1 0.867089 2.00133 0.188348 
75 1 3.16359 1.0445 1.74028 
76 1 1.50621 1.38265 3.99856 
77 1 3.66406 0.383966 0.85621 
78 1 0.74569 0.468317 3.90803 
79 2 2.70015 2.68366 2.01113 
80 2 2.57259 3.2429 2.79665 
81 1 2.50968 2.38298 2.99834 
82 1 0.389382 0.265493 1.12965 
83 1 3.02939 3.89535 0.164218 
84 1 3.24458 0.472066 3.23715 
85 1 0.16821 2.14769 2.0326 
86 1 2.74309 2.1661 1.28668 
87 1 3.29438 1.3131 0.773793 
88 1 2.03677 0.738691 3.12144 
89 2 3.43185 3.66385 2.18206 
90 2 3.56354 3.30775 0.704285 
91 1 -0.283038 0.544199 4.1831 
92 1 4.2693 4.03609 2.36099 
93 1 2.65623 3.28038 3.77266 
94 1 2.44791 0.416018 1.73561 
95 1 3.32834 2.36915 3.71805 
96 1 4.03084 1.79688 0.0359951 
97 1 2.3258 1.35736 0.229066 
98 1 1.82574 2.48417 3.77619 
99 2 3.17838 1.92314 3.04225 
100 2 1.02402 4.77298 0.444953 
