ITEM: TIMESTEP
259400
ITEM: NUMBER OF ATOMS
100
ITEM: BOX BOUNDS pp pp pp
0.0000000000000000e+00 4.3679023236814940e+00
0.0000000000000000e+00 4.3679023236814940e+00
0.0000000000000000e+00 4.3679023236814940e+00
ITEM: ATOMS id type x y z 
1 1 3.48009 1.68027 2.36503 
2 1 0.981235 1.59229 1.41944 
3 1 2.88134 0.312207 4.2117 
4 1 2.80814 0.38782 1.28591 
5 1 0.889455 2.44525 0.620986 
6 1 2.13592 1.03988 3.12572 
7 1 1.73461 3.27634 1.32141 
8 1 0.542018 3.36629 1.01606 
9 2 2.11266 0.57081 3.90242 
10 2 1.16658 3.95189 4.01949 
11 1 2.31313 4.05653 1.99278 
12 1 2.24508 1.90515 0.283163 
13 1 4.32022 2.50072 2.6219 
14 1 0.851983 2.76862 3.18608 
15 1 3.93366 1.41481 4.16553 
16 1 0.186395 2.40149 1.41875 
17 1 4.29535 1.48942 3.15399 
18 1 1.59325 2.04905 3.15372 
19 2 4.19976 3.76234 0.56913 
20 2 4.04654 3.24114 2.24546 
21 1 1.33534 0.411422 0.0713575 
22 1 2.85303 1.32981 4.03243 
23 1 0.496486 3.23442 2.04418 
24 1 2.73693 3.63961 1.20378 
25 1 -0.104169 2.85419 0.370335 
26 1 2.94396 3.66687 3.84115 
27 1 1.12217 1.4242 0.403298 
28 1 0.438371 4.16821 3.67311 
29 2 2.27521 1.83311 3.61211 
30 2 3.41236 2.81471 3.91613 
31 1 4.25593 2.52243 3.77367 
32 1 1.72284 0.437155 2.42393 
33 1 1.55356 2.55503 4.11492 
34 1 1.9294 1.57733 2.24269 
35 1 1.86738 0.802769 1.51391 
36 1 0.98735 0.62295 1.01384 
37 1 1.39655 3.50975 0.463683 
38 1 0.231785 1.45043 2.23318 
39 2 0.629223 1.95257 2.87067 
40 2 3.78254 4.48441 1.52016 
41 1 3.34255 3.27941 0.399945 
42 1 1.82762 2.25228 1.4411 
43 1 0.683233 0.530066 2.01418 
44 1 0.574743 4.10332 0.289426 
45 1 1.49987 3.12263 2.4333 
46 1 2.5058 3.32155 2.94042 
47 1 2.03781 4.02614 4.1745 
48 1 4.24167 4.09467 2.13404 
49 2 2.73628 2.13189 1.85568 
50 2 3.67655 2.71143 0.990664 
51 1 1.42312 0.213737 3.38811 
52 1 3.38034 2.03258 3.53248 
53 1 0.11083 0.463687 2.92513 
54 1 3.48367 3.02212 3.0109 
55 1 3.90219 3.44408 1.31622 
56 1 1.05059 2.26234 2.18517 
57 1 0.139636 3.42143 2.99006 
58 1 2.33793 3.19434 0.33598 
59 2 1.7687 1.53657 0.935185 
60 2 2.92505 4.51257 2.44885 
61 1 2.68806 0.948141 2.22762 
62 1 0.0944542 0.725592 0.50027 
63 1 1.2393 4.05527 1.72901 
64 1 4.22355 0.94509 1.41402 
65 1 3.31516 3.75357 2.12624 
66 1 1.89345 4.22967 0.891692 
67 1 2.44897 2.93764 1.96728 
68 1 3.51554 2.67988 1.92959 
69 2 1.69288 2.72582 0.649154 
70 2 1.04271 2.82832 1.48822 
71 1 3.2487 0.719506 3.25679 
72 1 3.65496 4.12951 3.06957 
73 1 0.9739 1.14337 3.00546 
74 1 0.75526 1.92995 3.88271 
75 1 0.187364 4.29477 1.15896 
76 1 0.620732 3.17703 4.1173 
77 1 3.57158 4.3109 0.609621 
78 1 3.98898 3.60247 3.93901 
79 2 2.92963 1.42824 2.98706 
80 2 1.89939 2.41761 2.35871 
81 1 2.53915 2.68058 3.79157 
82 1 2.19537 0.939833 0.470472 
83 1 3.94233 0.346503 4.02587 
84 1 2.48475 -0.0111342 3.14969 
85 1 2.8237 2.52222 1.08681 
86 1 3.60891 1.86793 1.27566 
87 1 3.31562 0.984615 0.553953 
88 1 1.59566 1.25875 3.87343 
89 2 1.84307 4.06755 2.733 
90 2 2.6823 4.03345 0.396661 
91 1 0.539354 0.85119 3.88047 
92 1 3.65365 0.584915 2.22665 
93 1 1.57594 3.45241 3.47318 
94 1 0.877069 4.07303 2.64024 
95 1 2.60815 2.25021 2.79074 
96 1 4.44272 1.75216 0.634019 
97 1 2.59198 1.50749 1.27104 
98 1 3.26874 2.20507 0.207568 
99 2 3.37129 1.08272 1.51799 
100 2 1.1084 1.31428 2.22574 
