ITEM: TIMESTEP
207600
ITEM: NUMBER OF ATOMS
100
ITEM: BOX BOUNDS pp pp pp
0.0000000000000000e+00 4.3679023236814940e+00
0.0000000000000000e+00 4.3679023236814940e+00
0.0000000000000000e+00 4.3679023236814940e+00
ITEM: ATOMS id type x y z 
1 1 3.8799 2.94163 3.0638 
2 1 0.845198 1.31641 2.57993 
3 1 2.51945 0.573815 0.587711 
4 1 2.26913 3.74129 2.52893 
5 1 2.97301 2.464 0.422673 
6 1 2.43381 1.07399 2.82142 
7 1 0.483936 2.72673 1.85574 
8 1 0.40561 3.54653 0.996158 
9 2 2.5782 0.804083 1.90396 
10 2 1.47117 1.88767 4.31819 
11 1 2.04888 1.15919 1.3355 
12 1 1.43545 1.79559 0.861195 
13 1 1.20125 2.82706 0.980285 
14 1 1.55057 1.98764 2.97228 
15 1 3.28247 1.57427 3.78064 
16 1 0.847181 1.22429 1.57845 
17 1 0.701076 1.8549 3.69211 
18 1 2.15653 1.75402 2.12252 
19 2 2.64608 -0.0145491 4.07507 
20 2 1.75583 1.00643 2.25728 
21 1 4.29808 1.12468 1.06251 
22 1 1.72867 0.109656 -0.0821153 
23 1 0.523076 2.31131 2.84132 
24 1 2.40596 3.36018 0.477016 
25 1 0.00266944 4.36431 3.70208 
26 1 4.16741 3.85356 0.162798 
27 1 3.91528 2.86661 4.61685 
28 1 2.18751 3.6834 3.85182 
29 2 1.87099 0.975253 0.250033 
30 2 4.29254 3.4939 3.67299 
31 1 4.37354 0.556018 0.262666 
32 1 1.47402 0.642348 3.05619 
33 1 1.92599 2.47719 4.65035 
34 1 1.44342 3.25149 1.88754 
35 1 1.16681 0.418897 1.99268 
36 1 3.72215 2.06793 1.05374 
37 1 1.2768 2.085 1.78282 
38 1 3.91911 0.542927 2.81125 
39 2 -0.260627 3.29062 2.3297 
40 2 3.60577 4.14133 2.02564 
41 1 2.99657 2.99988 1.21816 
42 1 2.09518 2.49936 1.24807 
43 1 0.512187 0.402271 2.83833 
44 1 1.31309 3.44853 0.0156786 
45 1 1.538 3.14322 3.06495 
46 1 3.18487 3.37433 2.25946 
47 1 2.63553 3.08155 3.22894 
48 1 0.115705 1.79771 2.06243 
49 2 3.65106 1.98982 0.00351008 
50 2 3.08539 0.699723 3.26621 
51 1 1.1829 4.00123 2.53755 
52 1 0.640747 3.07915 3.50785 
53 1 3.43687 4.02888 3.18456 
54 1 4.64251 3.75753 2.90888 
55 1 3.93856 4.33875 1.12075 
56 1 1.074 4.01126 3.56877 
57 1 4.01722 3.15053 1.47355 
58 1 0.808459 -0.152737 0.297595 
59 2 2.13206 0.28006 2.56506 
60 2 1.03205 3.97806 1.70424 
61 1 3.43467 1.1331 4.71609 
62 1 3.51415 4.80537 3.94325 
63 1 1.53312 0.483689 0.873294 
64 1 3.42011 1.34468 2.42437 
65 1 0.741585 2.53114 4.50252 
66 1 1.56102 3.83333 0.98253 
67 1 2.31354 2.75814 2.27629 
68 1 2.388 2.11161 3.73038 
69 2 0.880355 3.16383 2.51191 
70 2 0.0523748 1.28796 2.84091 
71 1 3.94899 1.94566 3.12475 
72 1 2.95385 4.01514 1.35986 
73 1 0.825258 0.596397 3.92216 
74 1 0.378703 2.13715 1.03626 
75 1 2.86581 1.80618 1.39409 
76 1 1.64076 1.25919 3.83083 
77 1 3.42383 0.851745 1.47225 
78 1 0.81761 1.13434 0.531989 
79 2 2.21223 3.4407 1.3953 
80 2 2.66384 2.93914 4.10456 
81 1 2.92058 2.07631 2.90433 
82 1 0.516182 0.243342 1.17656 
83 1 3.25586 4.26633 0.411569 
84 1 2.94299 0.204419 2.28086 
85 1 0.0904313 0.746489 2.015 
86 1 3.60085 2.32923 2.17702 
87 1 2.50299 1.53707 0.389143 
88 1 2.27236 4.52313 3.41589 
89 2 2.31743 -0.207096 0.690779 
90 2 3.20265 3.34247 0.498842 
91 1 4.32801 1.0595 3.66985 
92 1 0.123088 4.09442 1.94931 
93 1 3.34248 3.54016 4.06146 
94 1 2.10308 0.13534 1.65177 
95 1 3.37424 2.61103 3.80681 
96 1 4.41916 1.69511 0.100427 
97 1 2.57328 0.932449 3.96927 
98 1 1.47876 2.55873 3.82233 
99 2 4.35223 2.42967 3.83977 
100 2 0.441214 3.35565 0.0386222 
