ITEM: TIMESTEP
253600
ITEM: NUMBER OF ATOMS
100
ITEM: BOX BOUNDS pp pp pp
0.0000000000000000e+00 4.3679023236814940e+00
0.0000000000000000e+00 4.3679023236814940e+00
0.0000000000000000e+00 4.3679023236814940e+00
ITEM: ATOMS id type x y z 
1 1 3.43697 1.70518 2.17313 
2 1 0.712763 1.71379 1.33552 
3 1 2.84308 4.43894 0.177906 
4 1 2.91929 0.317018 1.18892 
5 1 1.02005 2.42671 0.618512 
6 1 2.16527 0.887628 3.07527 
7 1 1.64172 3.22402 1.30801 
8 1 0.574536 3.30297 1.12667 
9 2 2.16105 0.568915 4.04475 
10 2 1.25281 4.06827 4.19422 
11 1 2.27014 4.12862 1.91697 
12 1 2.19557 1.93015 0.351196 
13 1 4.20443 2.52176 2.69431 
14 1 0.830422 2.58917 3.16396 
15 1 3.96385 1.34407 4.0384 
16 1 -0.00719611 2.51976 1.54771 
17 1 0.22955 1.65127 3.22583 
18 1 1.73731 1.96457 3.08278 
19 2 4.49584 3.69553 0.378209 
20 2 4.04214 3.28458 2.21002 
21 1 1.39347 0.499647 0.136063 
22 1 2.74188 1.31369 3.88767 
23 1 0.556767 3.2386 2.19109 
24 1 2.76466 3.63542 1.07392 
25 1 4.28345 2.7287 0.492908 
26 1 3.03124 3.66557 3.91314 
27 1 1.18519 1.412 0.414215 
28 1 0.438867 -0.103736 3.86364 
29 2 2.32333 2.03124 3.6952 
30 2 3.06746 2.61936 3.65585 
31 1 3.94206 2.62899 3.90605 
32 1 1.65506 0.351244 2.40799 
33 1 1.58976 2.47627 4.07246 
34 1 2.0202 1.55442 2.23547 
35 1 1.866 0.695448 1.4677 
36 1 0.920645 0.644275 1.07563 
37 1 1.56946 3.41791 0.24268 
38 1 0.0890763 1.58701 2.1853 
39 2 1.01237 1.75544 3.49174 
40 2 3.76772 4.41598 1.45339 
41 1 3.38087 3.21708 0.378233 
42 1 1.72656 2.22669 1.45992 
43 1 0.513834 0.60916 2.05528 
44 1 0.842558 4.08793 0.492063 
45 1 1.59081 3.41946 2.38904 
46 1 2.5993 3.85672 2.87214 
47 1 2.07718 3.98687 3.92936 
48 1 4.29449 4.11904 2.26624 
49 2 2.63991 2.0816 1.88134 
50 2 3.5499 2.65716 1.06498 
51 1 1.42854 0.293078 3.48751 
52 1 3.42477 1.94479 3.30703 
53 1 0.0990867 0.505126 3.04062 
54 1 3.39569 3.20796 2.94581 
55 1 3.92541 3.43926 1.33427 
56 1 0.941313 2.15717 2.27284 
57 1 4.51127 3.40638 3.13918 
58 1 2.52187 2.75031 -0.100731 
59 2 1.62787 1.39474 1.14241 
60 2 2.98417 0.299172 2.71254 
61 1 2.72151 0.809499 2.11433 
62 1 0.114863 0.442797 0.318894 
63 1 1.1215 4.15414 1.70751 
64 1 4.25829 0.947966 1.25382 
65 1 3.34545 3.92961 2.04054 
66 1 1.93014 4.25361 0.840579 
67 1 2.4052 3.01379 2.03404 
68 1 3.39552 2.68831 1.93531 
69 2 1.87813 2.74361 0.622912 
70 2 0.906616 2.66702 1.57237 
71 1 3.47919 0.995376 3.13341 
72 1 3.65142 4.1771 3.08352 
73 1 1.09512 1.18449 2.91713 
74 1 0.549235 2.12689 4.08131 
75 1 0.23432 4.32567 1.28942 
76 1 0.551978 3.15959 4.25255 
77 1 3.71597 4.15608 0.598098 
78 1 4.02936 3.65137 4.01801 
79 2 2.79754 1.40407 2.77338 
80 2 1.86217 2.4683 2.38051 
81 1 2.1158 2.98132 3.2971 
82 1 2.26831 0.856432 0.494726 
83 1 3.77099 0.305084 4.0249 
84 1 2.79419 0.289068 3.55689 
85 1 2.60762 2.58496 1.04139 
86 1 3.59423 1.81166 1.14112 
87 1 3.42748 0.882909 0.514657 
88 1 1.73337 1.35167 3.85834 
89 2 1.74113 3.97097 2.99039 
90 2 2.43539 3.61473 0.242071 
91 1 0.672088 1.03051 3.93249 
92 1 3.70271 0.620991 2.16576 
93 1 1.21602 3.50053 3.51656 
94 1 0.849928 4.18133 2.74712 
95 1 2.69916 2.28759 2.7005 
96 1 0.0134879 1.66389 0.528434 
97 1 2.60893 1.41139 1.28173 
98 1 3.28936 2.05208 4.48232 
99 2 3.48598 1.0477 1.43452 
100 2 1.23122 1.30456 1.98844 
