ITEM: TIMESTEP
221100
ITEM: NUMBER OF ATOMS
100
ITEM: BOX BOUNDS pp pp pp
0.0000000000000000e+00 4.3679023236814940e+00
0.0000000000000000e+00 4.3679023236814940e+00
0.0000000000000000e+00 4.3679023236814940e+00
ITEM: ATOMS id type x y z 
1 1 3.38459 2.30818 1.95251 
2 1 0.851453 1.47589 2.03627 
3 1 2.44381 4.10144 0.778869 
4 1 2.97305 0.160035 1.68238 
5 1 0.8148 2.29602 1.15487 
6 1 2.11754 1.72604 3.35959 
7 1 2.39085 3.66621 1.83141 
8 1 0.221796 4.22951 0.978615 
9 2 1.6809 0.51123 3.10518 
10 2 0.257778 2.28888 3.78463 
11 1 3.3851 1.01351 2.03325 
12 1 1.798 1.16503 1.35482 
13 1 0.646185 3.33573 1.49425 
14 1 0.46631 1.74026 3.00856 
15 1 3.16038 1.39226 3.70474 
16 1 4.37225 1.96231 2.04696 
17 1 4.13331 1.2591 3.86824 
18 1 1.34955 2.3997 3.10469 
19 2 1.02781 3.35274 0.633106 
20 2 4.11489 3.40534 1.25542 
21 1 0.780196 0.5322 0.245366 
22 1 2.32437 1.22492 4.32707 
23 1 0.926223 2.51751 2.2603 
24 1 2.58322 2.99719 0.795502 
25 1 0.137752 3.28114 0.513734 
26 1 3.23269 3.18938 3.76137 
27 1 1.30588 1.42778 0.470814 
28 1 0.860046 2.99467 3.80617 
29 2 2.20362 1.48488 0.76083 
30 2 3.24473 2.39243 4.27234 
31 1 4.18278 2.9314 4.0243 
32 1 2.35071 0.843197 2.34323 
33 1 1.8664 2.32999 0.741042 
34 1 1.79008 1.6891 2.41111 
35 1 0.876862 0.713278 1.26668 
36 1 0.197461 1.38128 0.540623 
37 1 0.611114 2.36299 0.210766 
38 1 4.46302 0.826361 2.1358 
39 2 3.82153 2.51961 2.581 
40 2 4.35057 0.905413 3.03286 
41 1 3.49568 3.04782 0.444276 
42 1 2.29541 2.57308 1.71218 
43 1 0.668983 4.33003 1.89704 
44 1 0.828037 3.85956 0.00124771 
45 1 1.80156 3.01472 2.46681 
46 1 2.79264 3.97608 3.34221 
47 1 1.99454 4.08402 4.13229 
48 1 0.719251 3.57878 2.58184 
49 2 3.33997 2.38559 1.02863 
50 2 -0.00618053 4.06708 4.48229 
51 1 1.15737 4.10799 3.45366 
52 1 3.50767 2.31384 3.31403 
53 1 -0.029888 4.41471 2.87104 
54 1 3.69904 3.50577 2.96783 
55 1 3.56057 3.95887 0.916914 
56 1 0.142968 2.76163 3.0567 
57 1 4.23358 3.12622 2.09168 
58 1 1.7056 3.18021 0.0768852 
59 2 1.36445 0.778969 2.00897 
60 2 0.335578 1.46366 1.36493 
61 1 3.63659 0.381012 3.55322 
62 1 3.51657 3.97943 4.29806 
63 1 1.90721 0.217059 1.68784 
64 1 3.7033 1.65392 1.21319 
65 1 3.30761 3.24084 1.608 
66 1 1.23891 4.08936 1.02332 
67 1 2.85022 3.0288 2.61138 
68 1 4.22003 2.59125 1.1604 
69 2 1.44424 3.75182 1.87284 
70 2 1.50862 2.07169 1.66816 
71 1 3.80792 1.49436 2.82366 
72 1 3.34592 0.169951 2.62362 
73 1 0.975268 0.752743 2.80373 
74 1 0.707378 1.41531 3.87474 
75 1 3.88823 0.613057 1.18502 
76 1 1.54648 2.14853 4.10742 
77 1 4.04487 0.477911 0.19737 
78 1 -0.0680232 3.85666 3.63313 
79 2 3.19313 3.80017 2.22312 
80 2 2.35033 2.54161 3.12124 
81 1 2.46164 2.631 4.09304 
82 1 1.76519 0.512908 0.527067 
83 1 2.88529 0.382468 4.26045 
84 1 2.44567 0.605981 3.31154 
85 1 1.60186 3.14359 1.23873 
86 1 2.74358 1.65366 1.51872 
87 1 3.42359 1.22685 0.251958 
88 1 1.49823 0.769012 3.85198 
89 2 2.47678 0.000725534 2.46673 
90 2 2.78316 3.68346 4.44235 
91 1 0.424904 0.464987 3.65209 
92 1 4.02568 4.09601 1.90332 
93 1 1.95207 3.30956 3.41328 
94 1 1.66329 4.1585 2.57945 
95 1 2.78445 1.84268 2.60238 
96 1 3.94683 2.18253 0.300496 
97 1 2.81718 0.790984 0.906083 
98 1 2.80372 2.0045 0.463052 
99 2 3.0833 1.02679 2.87983 
100 2 1.26693 1.56645 3.22674 
