ITEM: TIMESTEP
255000
ITEM: NUMBER OF ATOMS
100
ITEM: BOX BOUNDS pp pp pp
0.0000000000000000e+00 4.3679023236814940e+00
0.0000000000000000e+00 4.3679023236814940e+00
0.0000000000000000e+00 4.3679023236814940e+00
ITEM: ATOMS id type x y z 
1 1 3.52004 1.70695 2.35597 
2 1 0.803743 1.61669 1.36386 
3 1 2.86214 4.39946 0.300466 
4 1 2.95525 0.293667 1.33423 
5 1 1.10586 2.34993 0.52713 
6 1 2.11991 1.16971 3.15675 
7 1 1.84061 3.227 1.39723 
8 1 0.728605 3.24944 1.05816 
9 2 2.06003 0.646098 3.89071 
10 2 1.21864 4.01083 4.11705 
11 1 2.27809 4.07588 1.92987 
12 1 2.22135 1.9029 0.307309 
13 1 4.1567 2.50269 2.63743 
14 1 0.6703 2.57229 3.19444 
15 1 3.92764 1.40458 4.07565 
16 1 0.123402 2.42687 1.46558 
17 1 0.0586582 1.62745 3.15795 
18 1 1.64011 2.13076 2.97432 
19 2 4.31662 3.52067 0.579772 
20 2 3.96358 3.25685 2.27233 
21 1 1.3122 0.423964 0.0471427 
22 1 2.80856 1.22187 4.03933 
23 1 0.49094 3.21381 2.15327 
24 1 2.93975 3.57131 1.25165 
25 1 4.18339 2.65112 0.479782 
26 1 3.05661 3.80355 3.8264 
27 1 0.936808 1.31306 0.443976 
28 1 0.464517 -0.015886 3.75622 
29 2 2.31812 2.09164 3.86622 
30 2 3.24733 2.94309 3.88032 
31 1 4.10767 2.70866 3.72132 
32 1 1.83275 0.394767 2.53164 
33 1 1.49729 2.58472 3.89695 
34 1 1.81795 1.57505 2.05857 
35 1 2.00472 0.678674 1.54373 
36 1 1.01202 0.524151 1.04013 
37 1 1.54726 3.4155 0.2693 
38 1 0.100594 1.49645 2.12496 
39 2 0.843524 1.74669 3.40497 
40 2 3.81768 4.33446 1.54657 
41 1 3.3072 3.2789 0.359303 
42 1 1.82468 2.17503 1.23141 
43 1 0.467428 0.534572 1.96091 
44 1 0.610644 4.00246 0.327323 
45 1 1.51412 3.28174 2.44197 
46 1 2.60432 3.93461 2.93886 
47 1 2.01743 4.17114 3.97604 
48 1 4.32194 4.03989 2.16692 
49 2 2.81941 2.14324 1.7118 
50 2 3.53589 2.79188 1.04235 
51 1 1.33939 0.401819 3.34124 
52 1 3.20404 2.16916 3.51617 
53 1 0.251084 0.549425 2.99541 
54 1 3.30262 3.07032 2.95704 
55 1 4.01606 3.35756 1.3856 
56 1 1.05297 2.28315 2.13932 
57 1 4.50939 3.4605 3.11025 
58 1 2.47034 2.80574 -0.0367726 
59 2 1.71306 1.27833 1.04602 
60 2 2.92905 0.184758 2.43773 
61 1 2.65908 0.994318 2.26078 
62 1 0.127119 0.595972 0.471717 
63 1 1.19673 4.07776 1.5888 
64 1 4.0641 0.86329 1.3597 
65 1 3.31598 3.91037 2.1209 
66 1 1.96224 4.16545 0.856404 
67 1 2.49417 3.08723 2.2193 
68 1 3.36454 2.78211 1.87681 
69 2 1.94389 2.78629 0.655658 
70 2 1.13349 2.64146 1.42817 
71 1 3.60818 0.991026 3.16692 
72 1 3.75906 4.14291 3.0191 
73 1 1.04998 1.21848 2.74145 
74 1 0.421538 2.02394 4.14521 
75 1 0.254862 4.20791 1.20571 
76 1 0.627307 3.15606 4.19589 
77 1 3.76423 4.17907 0.672927 
78 1 4.06537 3.66606 4.09801 
79 2 2.90425 1.39115 3.13996 
80 2 1.90074 2.45046 2.05721 
81 1 2.29036 3.00592 3.29092 
82 1 2.17727 0.760205 0.430646 
83 1 3.81707 0.386688 4.04057 
84 1 2.79901 0.38851 3.50034 
85 1 2.71069 2.61387 0.974498 
86 1 3.55323 1.90954 1.27609 
87 1 3.38356 0.912604 0.561776 
88 1 1.6001 1.46965 3.97207 
89 2 1.78399 4.06711 3.08564 
90 2 2.45559 3.58687 0.395826 
91 1 0.629506 0.988931 3.89152 
92 1 3.67618 0.540995 2.22906 
93 1 1.16422 3.51832 3.41937 
94 1 0.935911 4.18018 2.65233 
95 1 2.57795 2.06981 2.54121 
96 1 -0.0851081 1.58272 0.664784 
97 1 2.67413 1.43854 1.25222 
98 1 3.2817 2.04374 4.64183 
99 2 3.27762 1.13839 1.71698 
100 2 1.24268 0.943303 1.84575 
