ITEM: TIMESTEP
292400
ITEM: NUMBER OF ATOMS
100
ITEM: BOX BOUNDS pp pp pp
0.0000000000000000e+00 4.3679023236814940e+00
0.0000000000000000e+00 4.3679023236814940e+00
0.0000000000000000e+00 4.3679023236814940e+00
ITEM: ATOMS id type x y z 
1 1 3.45211 1.56 2.18976 
2 1 0.963218 1.6265 1.39239 
3 1 2.84832 0.330107 4.27254 
4 1 2.85878 0.31696 1.18587 
5 1 0.96641 2.50133 0.707726 
6 1 2.17156 1.03734 3.11631 
7 1 1.77243 3.303 1.26548 
8 1 0.574797 3.38929 1.08146 
9 2 2.11822 0.635365 3.89568 
10 2 1.09328 4.00435 4.02777 
11 1 2.25472 4.09151 2.01063 
12 1 2.23791 1.96581 0.386364 
13 1 4.22747 2.4499 2.60135 
14 1 0.758341 2.69539 3.15819 
15 1 4.00896 1.49049 4.0981 
16 1 0.124001 2.43657 1.49321 
17 1 4.55006 1.68541 3.23402 
18 1 1.73865 2.31259 3.13715 
19 2 4.18485 3.632 0.641105 
20 2 3.9484 3.22983 2.30971 
21 1 1.28559 0.392031 0.0982431 
22 1 2.80572 1.34235 3.99912 
23 1 0.515325 3.17997 2.14079 
24 1 2.85489 3.64471 1.22066 
25 1 -0.048439 2.75787 0.399065 
26 1 2.95618 3.65364 3.90336 
27 1 1.15409 1.40197 0.413429 
28 1 0.39088 4.31874 3.61463 
29 2 2.36758 1.80657 3.40208 
30 2 3.42526 2.9126 4.02097 
31 1 4.13326 2.54518 3.71945 
32 1 1.62961 0.426344 2.42627 
33 1 1.55294 2.5861 4.15498 
34 1 2.00891 1.57869 2.17556 
35 1 1.85634 0.7316 1.4423 
36 1 0.899082 0.590723 1.10379 
37 1 1.34267 3.47625 0.34777 
38 1 0.222076 1.52082 2.19351 
39 2 1.05155 1.89102 3.46282 
40 2 3.55463 4.19638 1.48223 
41 1 3.40149 3.24757 0.477757 
42 1 1.84549 2.28108 1.45577 
43 1 0.566197 0.487335 2.14037 
44 1 0.450108 4.12784 0.30015 
45 1 1.50522 3.24963 2.35808 
46 1 2.39388 3.30808 2.98087 
47 1 2.01038 4.07746 4.08204 
48 1 4.28745 4.03432 2.25421 
49 2 2.68782 2.1107 1.8227 
50 2 3.70498 2.6397 1.04181 
51 1 1.39853 0.288816 3.43731 
52 1 3.46445 1.87903 3.26947 
53 1 -0.0359885 0.681121 2.97444 
54 1 3.40855 3.02977 3.10201 
55 1 3.95611 3.40208 1.42924 
56 1 1.04258 2.21783 2.2513 
57 1 0.0257955 3.42625 3.11251 
58 1 2.34717 3.19377 0.281398 
59 2 1.77343 1.48992 1.02368 
60 2 3.01143 4.4598 2.52777 
61 1 2.65733 0.749473 2.11972 
62 1 0.0684252 0.697509 0.344689 
63 1 1.21127 4.08811 1.65398 
64 1 4.28053 0.982827 1.38215 
65 1 3.2385 3.70218 2.21071 
66 1 1.96034 4.25212 0.803646 
67 1 2.46145 3.02859 1.99011 
68 1 3.43224 2.6078 1.94254 
69 2 1.82192 2.65421 0.666142 
70 2 1.07394 2.76872 1.54149 
71 1 3.22842 0.808802 3.04538 
72 1 3.56498 4.14802 3.12609 
73 1 1.09601 1.25002 2.86276 
74 1 0.608083 2.07544 4.16934 
75 1 0.0562111 4.32012 1.27352 
76 1 0.608821 3.237 4.03746 
77 1 3.63006 4.28656 0.553764 
78 1 3.99546 3.66842 4.07395 
79 2 2.77517 1.41344 2.65005 
80 2 1.89482 2.45347 2.30082 
81 1 2.64392 2.55688 3.8371 
82 1 2.14012 0.916862 0.391593 
83 1 3.81837 0.412292 3.917 
84 1 2.4696 0.0429825 3.23086 
85 1 2.78274 2.57556 1.07121 
86 1 3.57517 1.81893 1.16144 
87 1 3.3944 1.01027 0.538714 
88 1 1.71415 1.48551 3.91618 
89 2 1.80459 3.98092 2.79491 
90 2 2.75197 3.95356 0.392101 
91 1 0.682375 1.0118 3.85632 
92 1 3.67351 0.472715 2.09082 
93 1 1.43854 3.45405 3.44631 
94 1 0.919788 4.02307 2.71266 
95 1 2.6847 2.28481 2.70337 
96 1 4.48468 1.73493 0.656315 
97 1 2.61171 1.43301 1.26855 
98 1 3.38868 2.18974 0.210001 
99 2 3.35054 1.00609 1.48866 
100 2 1.23531 1.09043 2.01043 
