ITEM: TIMESTEP
249000
ITEM: NUMBER OF ATOMS
100
ITEM: BOX BOUNDS pp pp pp
0.0000000000000000e+00 4.3679023236814940e+00
0.0000000000000000e+00 4.3679023236814940e+00
0.0000000000000000e+00 4.3679023236814940e+00
ITEM: ATOMS id type x y z 
1 1 3.56256 1.84106 2.10591 
2 1 0.880265 1.40192 1.40033 
3 1 2.65102 -0.123827 0.646861 
4 1 3.08096 0.261161 1.4931 
5 1 0.855398 2.46758 0.622059 
6 1 2.52895 1.34797 3.15052 
7 1 1.75296 3.0828 1.29753 
8 1 0.683105 3.34615 0.937284 
9 2 2.14189 0.571426 3.98735 
10 2 1.1525 4.00688 4.0711 
11 1 2.28819 3.98854 1.7 
12 1 2.2322 1.83108 0.309808 
13 1 4.25893 2.52293 2.55153 
14 1 0.807045 2.5803 3.19676 
15 1 3.96621 1.53726 4.22174 
16 1 0.0980133 2.41386 1.49512 
17 1 -0.0718623 1.72525 3.28052 
18 1 1.69081 2.08129 2.93754 
19 2 4.24097 3.66672 0.565055 
20 2 4.07204 3.36923 2.33243 
21 1 1.37983 0.464727 4.38589 
22 1 2.92931 1.37108 4.10356 
23 1 0.533606 3.2762 2.06964 
24 1 3.08256 3.52976 1.23067 
25 1 4.14142 2.83398 0.389587 
26 1 2.9319 3.72076 3.67697 
27 1 1.24708 1.47328 0.467223 
28 1 0.449314 4.2844 3.56588 
29 2 2.47999 2.11288 3.92197 
30 2 3.13636 2.81371 3.76982 
31 1 3.95649 2.69386 3.7129 
32 1 1.8238 0.318673 2.50952 
33 1 1.48608 2.37247 4.02975 
34 1 1.66477 1.40905 2.08491 
35 1 2.04204 0.537206 1.49071 
36 1 0.500532 0.783038 0.625997 
37 1 1.43009 3.30073 0.197994 
38 1 0.150111 1.47033 2.29303 
39 2 0.904441 1.78569 3.59496 
40 2 3.95347 0.0380283 1.65072 
41 1 3.15941 3.36217 0.220638 
42 1 1.6634 2.06465 1.2204 
43 1 0.906349 0.536363 2.20923 
44 1 0.527933 4.17471 0.27258 
45 1 1.61657 3.00052 2.48272 
46 1 2.39691 3.71194 2.67077 
47 1 2.04257 4.09326 4.15658 
48 1 0.147274 4.20388 2.39607 
49 2 2.97681 2.27951 1.61994 
50 2 3.42828 2.84353 0.875484 
51 1 1.32375 0.486492 3.34672 
52 1 3.33425 2.0927 3.16158 
53 1 0.145322 0.685918 3.06075 
54 1 3.43665 3.10189 2.86398 
55 1 4.10848 3.57784 1.39074 
56 1 0.941687 2.21548 2.09279 
57 1 0.157771 3.44844 3.1161 
58 1 2.31986 2.98438 4.32113 
59 2 1.36377 0.559303 0.922451 
60 2 2.76959 0.134945 2.31306 
61 1 2.66016 0.981991 2.16187 
62 1 4.12802 0.390916 4.09151 
63 1 1.2891 3.98323 1.85684 
64 1 4.26559 0.950825 1.37655 
65 1 3.33971 3.8604 2.19181 
66 1 1.60599 4.1502 0.792164 
67 1 2.48055 2.99822 1.96381 
68 1 3.5083 2.83547 1.85185 
69 2 1.76377 2.52269 0.509159 
70 2 0.991237 2.7883 1.49395 
71 1 3.5165 0.92606 3.37259 
72 1 3.67703 4.22719 3.22293 
73 1 0.962559 1.33005 2.91547 
74 1 0.391877 2.17845 4.1771 
75 1 0.515177 -0.0138259 1.35022 
76 1 0.49258 3.18838 4.05345 
77 1 3.93117 0.0890875 0.822504 
78 1 3.97933 3.74443 4.12573 
79 2 3.32133 1.28475 2.66835 
80 2 1.83485 2.26785 2.07033 
81 1 2.45963 2.73517 3.23944 
82 1 2.2715 0.795643 0.530867 
83 1 3.14088 0.371608 4.23368 
84 1 2.60823 0.311043 3.24879 
85 1 2.61082 2.64341 0.906758 
86 1 3.53112 1.99731 1.09225 
87 1 3.33408 1.01206 0.649508 
88 1 1.72243 1.33831 3.85351 
89 2 1.87762 4.18629 3.28698 
90 2 2.30692 3.49513 0.808926 
91 1 0.547838 1.10732 3.92155 
92 1 3.70606 0.494394 2.33298 
93 1 1.59758 3.38715 3.52206 
94 1 1.11634 3.90875 2.85381 
95 1 2.61937 2.02926 2.37276 
96 1 0.110146 1.78785 0.733157 
97 1 2.55401 1.51238 1.31096 
98 1 3.18357 2.26846 4.46476 
99 2 3.36969 1.18617 1.61857 
100 2 1.73204 1.13533 2.95781 
