ITEM: TIMESTEP
261600
ITEM: NUMBER OF ATOMS
100
ITEM: BOX BOUNDS pp pp pp
0.0000000000000000e+00 4.3679023236814940e+00
0.0000000000000000e+00 4.3679023236814940e+00
0.0000000000000000e+00 4.3679023236814940e+00
ITEM: ATOMS id type x y z 
1 1 3.67472 1.59454 2.34323 
2 1 0.835704 1.54718 1.40373 
3 1 2.96962 0.318444 4.12781 
4 1 2.78806 0.281598 1.30547 
5 1 1.08958 2.45409 0.535064 
6 1 2.15536 1.19714 3.15253 
7 1 1.56903 3.16108 1.40647 
8 1 0.61321 3.27162 0.987343 
9 2 2.14302 0.693379 3.94035 
10 2 1.25809 4.10463 4.10059 
11 1 2.17966 3.97934 2.0517 
12 1 2.34699 2.0598 0.336287 
13 1 4.30263 2.50212 2.70374 
14 1 0.822574 2.79033 3.13206 
15 1 3.90412 1.41206 4.18598 
16 1 0.0771746 2.28475 1.6269 
17 1 4.2958 1.52221 3.27112 
18 1 1.62099 2.1131 3.0652 
19 2 4.26679 3.65106 0.68368 
20 2 4.04006 3.21385 2.36495 
21 1 1.31732 0.49612 0.0542404 
22 1 2.76827 1.35719 3.95515 
23 1 0.520883 3.18355 2.03022 
24 1 2.72959 3.63725 1.13328 
25 1 -0.0213816 2.7689 0.359229 
26 1 3.06784 3.65644 3.88995 
27 1 0.845137 1.35365 0.326362 
28 1 0.502448 4.3046 3.65611 
29 2 2.25755 2.01927 3.71879 
30 2 3.55366 2.85854 4.03105 
31 1 4.22961 2.44696 3.74274 
32 1 1.68069 0.475775 2.472 
33 1 1.74963 2.62721 4.06854 
34 1 1.96777 1.65604 2.19054 
35 1 1.72115 0.916331 1.45048 
36 1 0.850365 0.503234 1.02348 
37 1 1.45943 3.48282 0.387061 
38 1 0.324866 1.45827 2.32431 
39 2 0.586632 1.96449 2.92726 
40 2 3.47254 4.07516 1.33532 
41 1 3.46685 3.25728 0.543192 
42 1 1.75614 2.12106 1.26554 
43 1 0.585845 0.485729 2.08932 
44 1 0.585713 4.0728 0.355057 
45 1 1.54562 3.24239 2.51545 
46 1 2.45053 3.36714 2.97598 
47 1 2.09164 4.15515 4.17347 
48 1 4.23971 4.04553 2.34034 
49 2 2.84048 1.88603 1.95267 
50 2 3.72245 2.60114 1.01279 
51 1 1.44274 0.264212 3.45788 
52 1 3.36193 2.02523 3.36091 
53 1 0.0405177 0.516443 2.93521 
54 1 3.45382 3.04916 3.02408 
55 1 3.97616 3.33672 1.4693 
56 1 0.989164 2.19471 2.22949 
57 1 -0.00967705 3.51451 3.18491 
58 1 2.45246 3.32011 0.260709 
59 2 1.60969 1.53551 0.641004 
60 2 2.89153 4.41356 2.15516 
61 1 2.68425 0.911657 2.18749 
62 1 0.0194834 0.60047 0.443384 
63 1 1.07341 4.02637 1.61075 
64 1 4.21899 0.944862 1.39618 
65 1 3.20358 3.61337 2.1133 
66 1 1.88439 4.26135 0.927484 
67 1 2.43041 2.96632 1.93979 
68 1 3.50422 2.60895 2.01676 
69 2 1.94648 2.7694 0.689931 
70 2 0.922436 2.53008 1.37333 
71 1 3.33025 0.901599 3.14948 
72 1 3.46996 4.23461 3.06009 
73 1 1.09911 1.23649 3.0117 
74 1 0.839324 2.04979 3.85788 
75 1 0.0642071 4.26885 1.28827 
76 1 0.740646 3.05613 4.12178 
77 1 3.60351 4.30141 0.560535 
78 1 4.11778 3.69263 4.15242 
79 2 2.91932 1.52308 2.74556 
80 2 1.75403 2.52817 2.13272 
81 1 2.75511 2.65151 3.79319 
82 1 2.29983 0.850993 0.435136 
83 1 3.94364 0.394292 3.83006 
84 1 2.52397 0.151947 3.06522 
85 1 2.79183 2.55415 1.12375 
86 1 3.60802 1.78579 1.32581 
87 1 3.32058 0.966288 0.626416 
88 1 1.75527 1.44678 4.02303 
89 2 1.8119 4.04026 2.86046 
90 2 2.60977 4.30375 0.484814 
91 1 0.510818 0.904194 3.8224 
92 1 3.66785 0.455067 2.12663 
93 1 1.44807 3.55766 3.51618 
94 1 0.945801 4.05233 2.6786 
95 1 2.58056 2.28623 2.77782 
96 1 4.38458 1.82129 0.60526 
97 1 2.6194 1.45541 1.23407 
98 1 3.38271 2.24229 0.231208 
99 2 3.29064 0.986972 1.52186 
100 2 1.17792 1.19533 2.08807 
