ITEM: TIMESTEP
235200
ITEM: NUMBER OF ATOMS
100
ITEM: BOX BOUNDS pp pp pp
0.0000000000000000e+00 4.3679023236814940e+00
0.0000000000000000e+00 4.3679023236814940e+00
0.0000000000000000e+00 4.3679023236814940e+00
ITEM: ATOMS id type x y z 
1 1 3.29606 1.72654 2.01712 
2 1 0.629637 1.57906 1.38811 
3 1 2.84093 0.360646 0.79457 
4 1 3.48717 0.218446 1.60616 
5 1 0.907639 2.34393 0.812886 
6 1 2.84186 1.14931 3.36177 
7 1 2.14117 3.18001 1.75213 
8 1 1.14018 3.3741 1.02362 
9 2 2.35248 0.60644 3.80404 
10 2 1.58245 4.53339 3.91343 
11 1 2.39223 4.51468 1.64514 
12 1 2.01031 1.71762 0.562868 
13 1 3.88732 2.57708 2.49407 
14 1 -0.164143 1.97044 3.34584 
15 1 3.52619 1.67735 4.33473 
16 1 0.213028 2.58515 1.59672 
17 1 0.138802 1.40823 4.11173 
18 1 1.47284 2.16082 3.04624 
19 2 0.123631 2.83822 3.48141 
20 2 4.2362 3.33655 2.04646 
21 1 1.26322 4.17344 0.24686 
22 1 2.71478 1.16379 0.112461 
23 1 0.696504 3.46641 1.92858 
24 1 3.0213 3.6322 1.31592 
25 1 4.4244 2.88049 0.656634 
26 1 2.8798 3.72595 3.78834 
27 1 1.04925 1.41692 0.403863 
28 1 0.679175 4.00405 3.77264 
29 2 2.32199 1.89945 3.32523 
30 2 3.05317 2.97259 4.05987 
31 1 3.86222 2.60864 4.0686 
32 1 1.6581 0.653998 2.16182 
33 1 1.51646 2.30415 4.14453 
34 1 1.31252 1.67683 2.09238 
35 1 1.36644 0.656567 1.16429 
36 1 0.357348 0.737035 0.728918 
37 1 1.04301 3.22073 4.38514 
38 1 0.108804 1.78565 2.25755 
39 2 1.01845 1.62946 3.82739 
40 2 4.14134 0.111294 1.09012 
41 1 3.44572 3.21089 0.49454 
42 1 1.85331 2.32279 1.4173 
43 1 0.664844 0.817721 2.20398 
44 1 0.294122 3.99955 0.5494 
45 1 1.58555 3.26038 2.55823 
46 1 2.51813 3.57058 2.70503 
47 1 2.25883 4.30358 4.3295 
48 1 4.42349 4.23415 2.30528 
49 2 2.66402 2.27948 1.73125 
50 2 3.51796 2.31409 0.529942 
51 1 1.47654 0.532628 3.16335 
52 1 3.16658 2.07935 3.08961 
53 1 0.235726 0.361877 3.10467 
54 1 3.44187 3.07469 3.26781 
55 1 4.05376 3.6055 1.29097 
56 1 0.653259 2.70058 2.56254 
57 1 -0.00386955 3.45257 2.95445 
58 1 2.14107 3.15517 4.39894 
59 2 1.4222 1.66413 1.1976 
60 2 3.13266 0.0640305 2.43862 
61 1 2.84399 0.836104 2.33242 
62 1 4.27395 0.277167 4.1403 
63 1 1.51466 4.01397 1.79368 
64 1 4.00391 1.23514 1.48459 
65 1 3.4304 3.60189 2.23652 
66 1 2.08354 3.7955 0.874247 
67 1 2.85566 2.74954 2.36392 
68 1 3.58795 2.64337 1.41864 
69 2 1.64871 2.74528 0.614918 
70 2 1.18767 2.82166 1.60436 
71 1 3.79238 0.897057 3.47044 
72 1 3.6236 4.21662 3.09423 
73 1 0.731644 1.40418 3.10623 
74 1 0.510877 2.37966 4.15859 
75 1 0.625302 0.053531 1.50212 
76 1 1.02005 3.08274 3.40535 
77 1 3.68687 4.19995 0.438527 
78 1 4.07728 3.6249 3.98459 
79 2 3.80115 1.49224 2.75018 
80 2 1.91167 2.49642 2.40437 
81 1 2.23711 2.76993 3.37287 
82 1 1.87747 0.702685 0.311459 
83 1 3.20548 0.395643 4.0796 
84 1 2.4641 0.218866 3.09359 
85 1 2.66925 2.62765 0.838643 
86 1 3.09083 1.63928 0.961364 
87 1 3.75023 0.87588 0.470563 
88 1 1.82076 1.34525 3.83628 
89 2 1.76558 4.13446 2.59977 
90 2 2.83275 3.79337 0.379046 
91 1 0.960358 0.729196 4.02423 
92 1 3.84653 0.723072 2.40657 
93 1 1.85877 3.82106 3.50423 
94 1 0.952792 4.03762 2.75784 
95 1 2.31504 1.73694 2.42462 
96 1 4.39047 1.87822 0.647422 
97 1 2.1777 1.22059 1.49378 
98 1 2.58704 2.1629 4.16218 
99 2 3.10902 0.908926 1.49534 
100 2 1.67202 1.32099 2.79452 
