ITEM: TIMESTEP
248800
ITEM: NUMBER OF ATOMS
100
ITEM: BOX BOUNDS pp pp pp
0.0000000000000000e+00 4.3679023236814940e+00
0.0000000000000000e+00 4.3679023236814940e+00
0.0000000000000000e+00 4.3679023236814940e+00
ITEM: ATOMS id type x y z 
1 1 3.63467 1.78127 2.04362 
2 1 0.871523 1.26188 1.51437 
3 1 2.47125 -0.0560804 0.662836 
4 1 3.12226 0.206623 1.42579 
5 1 0.934027 2.55317 0.666357 
6 1 2.56413 1.4798 3.14367 
7 1 1.59099 3.20875 1.28362 
8 1 0.616192 3.3968 1.01696 
9 2 2.26834 0.750624 3.72004 
10 2 1.15854 3.96603 4.06054 
11 1 2.19038 3.95149 1.60511 
12 1 2.21371 1.88613 0.353839 
13 1 4.20402 2.49783 2.58222 
14 1 0.777326 2.65676 3.12775 
15 1 3.89347 1.52021 4.29881 
16 1 0.0768012 2.54583 1.55802 
17 1 0.0648229 1.62424 3.29769 
18 1 1.775 2.11556 3.05038 
19 2 4.29718 3.56088 0.590964 
20 2 4.00862 3.39231 2.33704 
21 1 1.20659 0.358324 4.40326 
22 1 2.82904 1.29146 4.09769 
23 1 0.536784 3.2242 2.18595 
24 1 3.07424 3.51717 1.30771 
25 1 4.19087 2.61832 0.451916 
26 1 2.92643 3.7002 3.68962 
27 1 1.2359 1.45929 0.376109 
28 1 0.471282 4.36318 3.66538 
29 2 2.33534 2.07426 3.8997 
30 2 3.29326 2.92945 3.87413 
31 1 4.08734 2.68841 3.82861 
32 1 1.86253 0.222848 2.46943 
33 1 1.42178 2.47354 4.023 
34 1 1.86592 1.48825 2.18658 
35 1 1.81138 0.605646 1.48237 
36 1 0.349873 0.81352 0.489906 
37 1 1.52936 3.43738 0.242899 
38 1 0.227584 1.45876 2.27024 
39 2 1.00484 1.85623 3.58863 
40 2 3.95119 0.0398945 1.68849 
41 1 3.38102 3.30441 0.376447 
42 1 1.73609 2.11914 1.25243 
43 1 0.911127 0.53685 2.28662 
44 1 0.438953 4.10357 0.274321 
45 1 1.53013 3.07084 2.5126 
46 1 2.47171 3.65408 2.66869 
47 1 2.01974 4.24 3.96681 
48 1 0.115179 4.14577 2.4142 
49 2 2.90431 2.1087 1.55329 
50 2 3.49325 2.7686 1.0905 
51 1 1.41085 0.52437 3.41294 
52 1 3.50026 1.99693 3.19717 
53 1 0.147751 0.64917 2.9506 
54 1 3.45869 3.18496 2.96345 
55 1 4.14377 3.61025 1.48553 
56 1 0.960695 2.14529 2.22913 
57 1 0.0436603 3.49091 3.13351 
58 1 2.3415 3.0139 4.2699 
59 2 1.35538 0.768141 0.852248 
60 2 2.64018 0.0281033 2.21225 
61 1 2.70787 0.894066 2.07766 
62 1 4.05992 0.4413 4.15392 
63 1 1.2031 4.02017 1.8833 
64 1 4.18902 0.89857 1.37408 
65 1 3.41676 3.98679 2.24659 
66 1 1.35397 4.22631 0.873213 
67 1 2.3853 2.97801 1.89587 
68 1 3.37626 2.7684 1.93845 
69 2 1.85179 2.65838 0.568714 
70 2 0.987074 2.63366 1.50331 
71 1 3.53002 1.00515 3.38724 
72 1 3.65662 4.27111 3.22226 
73 1 1.11613 1.33465 2.91708 
74 1 0.431264 2.10177 4.19323 
75 1 0.400959 0.0637885 1.34521 
76 1 0.607033 3.18547 4.08894 
77 1 3.88465 -0.0741651 0.721992 
78 1 3.94581 3.67483 4.05272 
79 2 3.14677 1.36663 2.58601 
80 2 1.77029 2.3607 2.09568 
81 1 2.5619 2.64001 3.32606 
82 1 2.0946 0.810452 0.423032 
83 1 2.90764 0.286214 4.08502 
84 1 2.71365 0.310676 3.01678 
85 1 2.7127 2.64474 0.879952 
86 1 3.60803 1.89045 1.05633 
87 1 3.39777 0.870057 0.562127 
88 1 1.74015 1.43909 3.85635 
89 2 2.02283 4.18966 3.18463 
90 2 2.26551 3.45249 0.788866 
91 1 0.69218 1.07001 3.84877 
92 1 3.66658 0.612809 2.29658 
93 1 1.58476 3.40847 3.60155 
94 1 1.09418 4.01964 2.94249 
95 1 2.63344 2.14201 2.34551 
96 1 0.271107 1.78769 0.84212 
97 1 2.56903 1.37209 1.13781 
98 1 3.13263 2.2567 4.40919 
99 2 3.32477 1.07882 1.53792 
100 2 1.95361 0.992937 2.86488 
