ITEM: TIMESTEP
232200
ITEM: NUMBER OF ATOMS
100
ITEM: BOX BOUNDS pp pp pp
0.0000000000000000e+00 4.3679023236814940e+00
0.0000000000000000e+00 4.3679023236814940e+00
0.0000000000000000e+00 4.3679023236814940e+00
ITEM: ATOMS id type x y z 
1 1 3.57738 1.67079 2.29623 
2 1 0.605068 1.24931 1.48035 
3 1 3.02068 0.731114 0.985109 
4 1 3.57768 0.0087513 1.60613 
5 1 1.13819 2.31984 0.997125 
6 1 2.30758 1.05149 3.45003 
7 1 2.1254 3.34799 1.86996 
8 1 0.638393 3.56093 1.06524 
9 2 1.7833 0.544937 4.17147 
10 2 1.67683 3.94732 4.39586 
11 1 2.47944 -0.130954 1.55142 
12 1 1.95034 1.61986 0.653588 
13 1 3.82983 2.73188 2.17335 
14 1 4.14878 2.27742 3.06114 
15 1 3.35591 1.83083 3.84834 
16 1 0.0422824 2.15477 1.54268 
17 1 0.0161945 1.55791 3.98796 
18 1 1.95664 2.03456 3.22522 
19 2 0.27595 3.28621 4.11061 
20 2 0.0416147 3.00852 1.5144 
21 1 1.06802 -0.00419038 0.529494 
22 1 2.63391 1.25211 0.0457386 
23 1 0.872072 3.06718 2.01606 
24 1 2.91966 3.44782 0.966829 
25 1 0.152753 2.82009 0.559162 
26 1 3.16193 3.86812 3.61636 
27 1 1.12289 1.09571 0.487094 
28 1 0.867526 4.08359 3.74152 
29 2 2.53088 2.08719 3.86436 
30 2 3.26076 2.81902 3.81405 
31 1 4.10527 2.67414 4.01985 
32 1 1.93414 0.467823 2.27837 
33 1 1.80305 2.49816 4.32289 
34 1 1.373 1.59603 2.13974 
35 1 1.3801 0.517251 1.37279 
36 1 0.168585 0.768149 0.580454 
37 1 1.11494 3.27419 0.262495 
38 1 0.301273 1.68686 2.39697 
39 2 0.498005 2.12494 3.51334 
40 2 3.8414 0.424974 0.886657 
41 1 3.60985 3.38806 0.173201 
42 1 1.88259 2.39738 2.13462 
43 1 0.919323 0.654685 2.24759 
44 1 0.113159 4.09239 0.188079 
45 1 1.49274 3.18692 2.78314 
46 1 2.49581 3.5575 2.76828 
47 1 2.46266 0.122117 4.0489 
48 1 -0.161076 3.70801 2.16975 
49 2 2.16269 1.9438 1.4572 
50 2 3.73014 2.18145 0.257164 
51 1 1.52045 0.415712 3.21417 
52 1 3.03265 2.23776 3.01569 
53 1 0.344552 0.436881 3.00443 
54 1 3.48954 3.21152 3.00197 
55 1 3.98721 3.64938 1.03282 
56 1 0.962838 2.33907 2.73169 
57 1 0.278033 3.11845 2.9199 
58 1 2.41591 3.50139 0.0982139 
59 2 1.47047 1.29611 1.24244 
60 2 2.96061 -0.0841948 2.28221 
61 1 3.09906 0.752843 2.16351 
62 1 4.21763 0.485854 3.89164 
63 1 1.31017 3.93718 1.7965 
64 1 3.78241 1.3695 1.32594 
65 1 3.15417 3.50465 1.94418 
66 1 1.85536 3.74133 0.920765 
67 1 2.92443 2.48109 1.88702 
68 1 3.642 2.64008 1.01053 
69 2 1.47359 3.08151 1.40266 
70 2 0.896568 2.21841 1.81114 
71 1 3.91847 1.07507 3.01757 
72 1 3.69534 0.046294 2.75284 
73 1 0.838883 1.39495 3.24475 
74 1 0.828573 2.16133 4.28594 
75 1 0.348583 0.124479 1.3137 
76 1 1.00723 2.90314 3.60432 
77 1 3.45423 4.47315 0.189341 
78 1 4.15251 3.79999 3.62065 
79 2 3.10924 1.292 3.14599 
80 2 2.4788 2.72379 2.71125 
81 1 2.39076 2.90882 3.56514 
82 1 2.05621 0.452401 0.659787 
83 1 3.30937 0.779232 3.83077 
84 1 2.67862 0.281084 3.0106 
85 1 2.22362 2.64121 0.999049 
86 1 2.92089 1.83091 1.07099 
87 1 3.56251 1.28502 0.363631 
88 1 1.64212 1.48269 4.04983 
89 2 1.64249 4.14753 2.6428 
90 2 2.64426 4.20922 0.50728 
91 1 0.8979 0.700087 3.93319 
92 1 4.23222 0.683091 2.13989 
93 1 1.84521 3.78968 3.59304 
94 1 0.710489 3.9881 2.61841 
95 1 2.48276 1.46456 2.45567 
96 1 0.207999 1.74041 0.615614 
97 1 2.19839 1.08862 1.47081 
98 1 2.94457 2.57267 0.266094 
99 2 2.94535 1.48078 1.7637 
100 2 1.63006 1.25946 2.92313 
