ITEM: TIMESTEP
262800
ITEM: NUMBER OF ATOMS
100
ITEM: BOX BOUNDS pp pp pp
0.0000000000000000e+00 4.3679023236814940e+00
0.0000000000000000e+00 4.3679023236814940e+00
0.0000000000000000e+00 4.3679023236814940e+00
ITEM: ATOMS id type x y z 
1 1 3.62159 1.42363 2.18031 
2 1 0.811862 1.50709 1.41443 
3 1 2.9753 0.418921 4.03251 
4 1 2.88327 0.325779 1.26036 
5 1 0.993022 2.38575 0.612274 
6 1 2.26663 1.20447 3.13629 
7 1 1.73544 3.20861 1.29139 
8 1 0.583521 3.3618 1.00819 
9 2 2.12191 0.706932 3.95213 
10 2 1.17081 3.92104 4.09938 
11 1 2.21715 4.14892 1.97049 
12 1 2.06145 1.7749 0.426023 
13 1 4.21304 2.45059 2.71841 
14 1 0.847042 2.92411 3.01291 
15 1 3.73928 1.37113 4.13713 
16 1 0.247952 2.38975 1.5129 
17 1 4.32952 1.55181 3.34964 
18 1 1.57856 2.24191 3.13121 
19 2 4.19986 3.68484 0.636665 
20 2 4.01878 3.22046 2.29415 
21 1 1.28551 0.403501 0.13648 
22 1 2.6467 1.39064 4.07052 
23 1 0.588975 3.22439 2.03875 
24 1 2.77967 3.70293 1.21752 
25 1 -0.0340355 2.89284 0.390478 
26 1 3.00202 3.72997 3.77953 
27 1 0.952146 1.34453 0.359578 
28 1 0.530287 4.23135 3.65381 
29 2 2.30709 1.92985 3.55271 
30 2 3.41868 2.97117 4.01527 
31 1 4.10699 2.50043 3.78617 
32 1 1.65462 0.524903 2.52317 
33 1 1.73316 2.53034 4.18566 
34 1 1.92644 1.56228 2.19555 
35 1 1.80023 0.709292 1.57822 
36 1 0.863229 0.569282 1.032 
37 1 1.3656 3.39485 0.357556 
38 1 0.265193 1.41237 2.31372 
39 2 0.614054 1.9947 2.91522 
40 2 3.51198 4.13788 1.41699 
41 1 3.4269 3.273 0.563866 
42 1 1.7346 2.17195 1.35671 
43 1 0.696062 0.497755 2.06918 
44 1 0.512138 4.1375 0.356195 
45 1 1.58899 3.29895 2.33882 
46 1 2.45922 3.42245 2.91064 
47 1 2.08299 4.21062 4.17685 
48 1 4.36589 4.02604 2.26019 
49 2 2.88171 2.01506 1.88344 
50 2 3.74329 2.64211 1.01233 
51 1 1.42721 0.3296 3.46238 
52 1 3.33673 1.97858 3.30451 
53 1 0.0865017 0.551432 2.95987 
54 1 3.41735 3.05348 3.00771 
55 1 3.98598 3.37047 1.44918 
56 1 1.12108 2.17641 2.14197 
57 1 0.0312503 3.48217 3.13674 
58 1 2.38932 3.2266 0.252923 
59 2 1.56904 1.28278 0.99745 
60 2 2.98241 4.36265 2.42021 
61 1 2.73586 0.798318 2.19553 
62 1 0.0109366 0.765036 0.428712 
63 1 1.15021 4.01932 1.63987 
64 1 4.21406 1.03179 1.35875 
65 1 3.32122 3.68124 2.13733 
66 1 1.93261 4.21817 0.910088 
67 1 2.48877 2.98892 2.00557 
68 1 3.48987 2.626 1.96572 
69 2 1.91195 2.62382 0.666831 
70 2 1.00941 2.72749 1.42838 
71 1 3.35508 0.895952 3.1472 
72 1 3.6095 4.22256 3.04018 
73 1 1.06478 1.22582 3.01907 
74 1 0.812851 2.04724 3.8928 
75 1 0.0695903 4.33193 1.30431 
76 1 0.591193 3.26307 3.98874 
77 1 3.6332 4.30047 0.524696 
78 1 4.03828 3.67918 4.10259 
79 2 2.88208 1.47694 2.63687 
80 2 1.94158 2.44454 2.22324 
81 1 2.65556 2.61359 3.82819 
82 1 2.2069 0.706814 0.431392 
83 1 4.02468 0.374699 3.95835 
84 1 2.45383 0.192761 3.2171 
85 1 2.74129 2.54113 1.11519 
86 1 3.53029 1.86467 1.22446 
87 1 3.2617 1.00195 0.546592 
88 1 1.62229 1.41566 3.93141 
89 2 1.80064 4.05591 2.93236 
90 2 2.72253 4.01953 0.434234 
91 1 0.575535 0.869729 3.91435 
92 1 3.68796 0.401537 2.06326 
93 1 1.68112 3.42568 3.58163 
94 1 0.932775 4.05029 2.71966 
95 1 2.62576 2.30457 2.68054 
96 1 4.39816 1.89395 0.557555 
97 1 2.54449 1.44546 1.33827 
98 1 3.28781 2.27407 0.240214 
99 2 3.3392 1.00057 1.47031 
100 2 1.15582 1.21674 2.13315 
