ITEM: TIMESTEP
286900
ITEM: NUMBER OF ATOMS
100
ITEM: BOX BOUNDS pp pp pp
0.0000000000000000e+00 4.3679023236814940e+00
0.0000000000000000e+00 4.3679023236814940e+00
0.0000000000000000e+00 4.3679023236814940e+00
ITEM: ATOMS id type x y z 
1 1 3.47059 1.58315 2.18965 
2 1 0.968925 1.66295 1.40736 
3 1 2.91232 0.276041 4.23759 
4 1 2.90251 0.315006 1.13657 
5 1 1.03366 2.50115 0.713583 
6 1 2.16034 1.06844 3.10209 
7 1 1.69536 3.28641 1.28361 
8 1 0.556984 3.33874 1.09717 
9 2 2.16004 0.68348 3.89627 
10 2 1.06695 4.06466 4.06126 
11 1 2.28444 4.09324 2.00834 
12 1 2.26348 2.00706 0.312655 
13 1 4.15501 2.40308 2.54573 
14 1 0.78523 2.60752 3.23128 
15 1 3.98164 1.4827 4.11962 
16 1 0.0636484 2.4102 1.51977 
17 1 4.54288 1.73485 3.22517 
18 1 1.76104 2.20201 3.1586 
19 2 4.17981 3.61 0.659732 
20 2 3.95416 3.20911 2.29365 
21 1 1.31322 0.391766 0.174086 
22 1 2.86348 1.30301 4.02411 
23 1 0.46632 3.15473 2.16276 
24 1 2.88848 3.64168 1.22761 
25 1 -0.0128919 2.76064 0.4248 
26 1 2.95943 3.63837 3.86565 
27 1 1.12488 1.39241 0.403514 
28 1 0.387787 4.25959 3.59021 
29 2 2.48353 1.85313 3.43068 
30 2 3.43899 2.92047 4.00075 
31 1 4.15342 2.55095 3.74978 
32 1 1.61368 0.42983 2.41244 
33 1 1.57757 2.6329 4.12529 
34 1 1.91256 1.53336 2.21446 
35 1 1.84518 0.791788 1.44588 
36 1 0.875434 0.61443 1.132 
37 1 1.34379 3.54595 0.367769 
38 1 0.209226 1.48047 2.19199 
39 2 1.06225 1.79741 3.40266 
40 2 3.61079 4.2231 1.47304 
41 1 3.40288 3.29386 0.442959 
42 1 1.83558 2.23893 1.45657 
43 1 0.496424 0.461485 2.1091 
44 1 0.399275 4.10554 0.285291 
45 1 1.48748 3.15851 2.39637 
46 1 2.3625 3.31786 2.98188 
47 1 2.03308 4.11055 4.15583 
48 1 4.22811 4.02764 2.30276 
49 2 2.67604 2.1633 1.7993 
50 2 3.70697 2.6768 0.992022 
51 1 1.41859 0.280571 3.46864 
52 1 3.42886 1.90101 3.30022 
53 1 -0.00954184 0.692648 2.97112 
54 1 3.4059 3.00493 3.08055 
55 1 3.93828 3.38554 1.46077 
56 1 0.98512 2.17959 2.29872 
57 1 0.0127152 3.38026 3.12285 
58 1 2.36836 3.28905 0.341347 
59 2 1.82647 1.52894 0.952732 
60 2 3.02227 4.43887 2.48897 
61 1 2.6751 0.805419 2.10245 
62 1 0.18058 0.764714 0.352462 
63 1 1.16655 4.02671 1.71748 
64 1 4.20075 0.94945 1.3259 
65 1 3.2162 3.66101 2.24355 
66 1 1.97648 4.21827 0.875287 
67 1 2.43066 3.01881 1.94735 
68 1 3.39558 2.64 1.90542 
69 2 1.86646 2.68318 0.687565 
70 2 1.04394 2.70188 1.58534 
71 1 3.22762 0.863751 2.99173 
72 1 3.56105 4.12786 3.12542 
73 1 1.02387 1.15881 2.86175 
74 1 0.62647 2.07564 4.13884 
75 1 0.0969352 4.27377 1.31631 
76 1 0.602813 3.19261 4.08983 
77 1 3.72799 4.34583 0.572002 
78 1 3.9779 3.66001 4.07475 
79 2 2.6924 1.51658 2.61117 
80 2 1.89656 2.37428 2.30907 
81 1 2.63837 2.60193 3.81604 
82 1 2.22999 0.894573 0.405109 
83 1 3.9265 0.43249 3.88782 
84 1 2.45801 0.0764716 3.18171 
85 1 2.7949 2.58352 1.0287 
86 1 3.60471 1.84179 1.17153 
87 1 3.41064 1.02611 0.527621 
88 1 1.6923 1.45774 3.92837 
89 2 1.75841 3.99871 2.75294 
90 2 2.81141 4.03666 0.479515 
91 1 0.669353 0.989559 3.84375 
92 1 3.7267 0.530157 2.11193 
93 1 1.45778 3.49189 3.466 
94 1 0.858423 3.97766 2.70814 
95 1 2.69629 2.34004 2.68131 
96 1 4.52153 1.7373 0.645131 
97 1 2.63747 1.52489 1.20906 
98 1 3.30926 2.2047 0.156204 
99 2 3.29882 1.00146 1.49605 
100 2 1.15623 1.02875 1.93383 
