ITEM: TIMESTEP
289700
ITEM: NUMBER OF ATOMS
100
ITEM: BOX BOUNDS pp pp pp
0.0000000000000000e+00 4.3679023236814940e+00
0.0000000000000000e+00 4.3679023236814940e+00
0.0000000000000000e+00 4.3679023236814940e+00
ITEM: ATOMS id type x y z 
1 1 3.52607 1.53427 2.25172 
2 1 0.929294 1.63484 1.35017 
3 1 2.84451 0.331455 4.19516 
4 1 2.91063 0.356494 1.1754 
5 1 0.974904 2.47934 0.73644 
6 1 2.13713 1.03078 3.1075 
7 1 1.77534 3.30452 1.26492 
8 1 0.634907 3.41922 1.13986 
9 2 2.02636 0.613582 3.92578 
10 2 1.07104 4.01397 4.03562 
11 1 2.2666 4.09559 2.00907 
12 1 2.19712 2.02103 0.346121 
13 1 4.15602 2.4142 2.58717 
14 1 0.711275 2.63341 3.16549 
15 1 3.98921 1.45217 4.07512 
16 1 0.121857 2.41237 1.46645 
17 1 4.59213 1.71003 3.19845 
18 1 1.71319 2.29201 3.12178 
19 2 4.20758 3.65771 0.672387 
20 2 3.92889 3.20576 2.36259 
21 1 1.32176 0.373204 0.117805 
22 1 2.84947 1.38574 4.05862 
23 1 0.457789 3.17553 2.15995 
24 1 2.85599 3.65088 1.21748 
25 1 -0.011388 2.81817 0.418227 
26 1 2.96143 3.62699 3.84574 
27 1 1.13049 1.38546 0.401071 
28 1 0.388501 4.31018 3.60691 
29 2 2.36693 1.79567 3.44989 
30 2 3.44988 2.94439 4.03733 
31 1 4.12394 2.54675 3.73513 
32 1 1.59608 0.405909 2.43581 
33 1 1.58565 2.63309 4.14171 
34 1 1.94354 1.60967 2.19682 
35 1 1.90747 0.651214 1.45621 
36 1 0.934339 0.59932 1.09466 
37 1 1.32943 3.48328 0.35232 
38 1 0.210319 1.52241 2.13285 
39 2 1.08125 1.83621 3.48655 
40 2 3.5643 4.17191 1.42133 
41 1 3.41349 3.25999 0.461691 
42 1 1.78519 2.24506 1.36891 
43 1 0.575602 0.539578 2.08483 
44 1 0.4609 4.08544 0.306854 
45 1 1.48344 3.23566 2.33457 
46 1 2.39044 3.34946 2.9424 
47 1 2.01286 3.98228 4.06185 
48 1 4.2761 4.07645 2.2858 
49 2 2.6746 2.17207 1.82302 
50 2 3.68687 2.65519 1.01717 
51 1 1.40102 0.248221 3.45242 
52 1 3.39975 1.86064 3.24433 
53 1 -0.0670358 0.724338 2.97189 
54 1 3.38506 3.02445 3.07265 
55 1 3.98045 3.40198 1.48069 
56 1 1.0067 2.20548 2.22897 
57 1 0.0144055 3.39504 3.11443 
58 1 2.42736 3.1941 0.30089 
59 2 1.74124 1.40372 1.03161 
60 2 3.013 4.48221 2.59315 
61 1 2.65832 0.767415 2.15604 
62 1 0.137333 0.722868 0.357443 
63 1 1.22607 4.10333 1.65065 
64 1 4.23333 0.982022 1.32576 
65 1 3.20939 3.68673 2.23822 
66 1 2.0322 4.21823 0.74364 
67 1 2.4369 3.00322 1.9579 
68 1 3.39941 2.64247 1.93816 
69 2 1.79632 2.73266 0.639951 
70 2 1.11187 2.80677 1.59725 
71 1 3.20456 0.786477 3.18349 
72 1 3.61088 4.16882 3.15492 
73 1 1.09399 1.25565 2.80692 
74 1 0.610025 2.09371 4.15909 
75 1 0.0565039 4.32349 1.30047 
76 1 0.604596 3.22154 4.03454 
77 1 3.66274 4.32922 0.562196 
78 1 3.99298 3.69384 4.11107 
79 2 2.7679 1.43732 2.69354 
80 2 1.84868 2.45241 2.26805 
81 1 2.65759 2.57507 3.77898 
82 1 2.23364 0.906269 0.476649 
83 1 3.90024 0.420923 3.93494 
84 1 2.45571 -0.00528968 3.2052 
85 1 2.79219 2.53067 1.05207 
86 1 3.57901 1.82173 1.26851 
87 1 3.43457 1.0663 0.516238 
88 1 1.72791 1.46317 3.94779 
89 2 1.74406 3.96608 2.79792 
90 2 2.88429 3.9615 0.380392 
91 1 0.711795 0.994692 3.80809 
92 1 3.63801 0.458989 2.07384 
93 1 1.42263 3.41318 3.3954 
94 1 0.872505 3.99251 2.71048 
95 1 2.64869 2.31128 2.67324 
96 1 4.45391 1.76663 0.64487 
97 1 2.58305 1.46147 1.32945 
98 1 3.47513 2.18815 0.233366 
99 2 3.32284 1.03429 1.5216 
100 2 1.23013 1.09076 1.9315 
