ITEM: TIMESTEP
251600
ITEM: NUMBER OF ATOMS
100
ITEM: BOX BOUNDS pp pp pp
0.0000000000000000e+00 4.3679023236814940e+00
0.0000000000000000e+00 4.3679023236814940e+00
0.0000000000000000e+00 4.3679023236814940e+00
ITEM: ATOMS id type x y z 
1 1 3.57855 1.73087 2.38251 
2 1 0.998958 1.46711 1.49046 
3 1 2.67629 4.19893 0.297102 
4 1 2.93522 0.398212 1.46303 
5 1 1.13932 2.30127 0.643114 
6 1 2.07282 1.23627 3.07856 
7 1 1.63206 3.31624 1.33757 
8 1 0.719177 3.19849 0.970695 
9 2 2.06564 0.542638 3.71148 
10 2 1.23549 3.91441 4.0761 
11 1 2.19102 4.09811 1.84738 
12 1 2.33202 1.95072 0.321806 
13 1 4.26301 2.56514 2.56088 
14 1 0.657763 2.59782 3.261 
15 1 4.04064 1.47711 4.26258 
16 1 0.169737 2.47619 1.54689 
17 1 0.0808759 1.69923 3.08718 
18 1 1.68594 2.22309 3.07543 
19 2 4.29983 3.38311 0.485038 
20 2 3.99921 3.32963 2.24109 
21 1 1.34681 0.362494 0.0109093 
22 1 2.82641 1.2024 4.01966 
23 1 0.505736 3.34554 2.09638 
24 1 3.00423 3.7552 1.18897 
25 1 4.2242 2.56061 0.482943 
26 1 3.00635 3.67732 3.72687 
27 1 0.990117 1.30255 0.389946 
28 1 0.50056 0.0279901 3.83625 
29 2 2.29964 1.91318 3.65498 
30 2 3.20628 2.80171 3.71493 
31 1 4.07292 2.63323 3.7191 
32 1 1.82674 0.34825 2.53086 
33 1 1.55979 2.38477 4.07396 
34 1 1.77741 1.61533 2.21162 
35 1 1.94273 0.647722 1.45549 
36 1 1.00471 0.529533 1.06831 
37 1 1.57328 3.37027 0.222795 
38 1 0.117285 1.51257 1.93631 
39 2 0.991243 1.82354 3.45469 
40 2 3.7583 4.29237 1.54976 
41 1 3.40168 3.32862 0.30076 
42 1 1.91933 2.22219 1.3583 
43 1 0.557809 0.61876 1.98342 
44 1 0.613204 4.02791 0.372311 
45 1 1.52042 3.35071 2.43943 
46 1 2.4433 3.80354 2.82102 
47 1 2.04231 4.01406 3.84652 
48 1 4.27715 4.17668 2.27974 
49 2 2.82899 2.28625 1.68355 
50 2 3.62183 2.83219 1.03023 
51 1 1.31443 0.552523 3.3541 
52 1 3.15315 2.00225 3.42555 
53 1 0.254553 0.556353 3.02806 
54 1 3.42485 3.10593 2.90706 
55 1 4.11537 3.40528 1.42219 
56 1 0.872557 2.18649 2.29958 
57 1 4.42011 3.51047 3.04058 
58 1 2.48325 2.95522 -0.0552094 
59 2 1.75252 1.28691 0.918633 
60 2 2.71549 0.200441 2.33162 
61 1 2.65174 1.07316 2.25375 
62 1 0.151364 0.551561 0.34739 
63 1 1.1173 4.13282 1.72705 
64 1 4.05811 0.743601 1.38453 
65 1 3.29686 3.88074 2.21724 
66 1 1.81395 4.23285 0.865809 
67 1 2.48556 2.99792 1.99573 
68 1 3.49485 2.72991 1.89552 
69 2 1.89569 2.6216 0.542311 
70 2 1.01017 2.66941 1.60835 
71 1 3.61724 1.00753 3.30641 
72 1 3.70301 4.3379 3.1233 
73 1 0.964896 1.29518 2.75555 
74 1 0.578 2.01339 4.16845 
75 1 0.220326 4.25112 1.25183 
76 1 0.641306 3.05343 4.23673 
77 1 3.75096 4.30314 0.693085 
78 1 4.08385 3.71818 4.02353 
79 2 2.93833 1.3306 2.97249 
80 2 1.76678 2.51516 2.32301 
81 1 2.41903 2.85957 3.28178 
82 1 2.27447 0.825097 0.393647 
83 1 3.55907 0.372387 4.09928 
84 1 2.75249 0.398499 3.21555 
85 1 2.73876 2.66947 0.962596 
86 1 3.52101 1.92704 1.18192 
87 1 3.4379 0.939143 0.610699 
88 1 1.69659 1.37594 4.01326 
89 2 1.67545 4.08535 3.06335 
90 2 2.31465 3.47543 0.749528 
91 1 0.545773 1.05293 3.85166 
92 1 3.56778 0.606848 2.36682 
93 1 1.40468 3.35158 3.41944 
94 1 0.87681 4.11131 2.83798 
95 1 2.62587 2.12891 2.46601 
96 1 0.0538151 1.49914 0.835412 
97 1 2.59056 1.41768 1.2829 
98 1 3.25988 2.31405 4.41211 
99 2 3.33973 1.14644 1.65264 
100 2 1.34934 0.908791 2.03088 
