ITEM: TIMESTEP
264700
ITEM: NUMBER OF ATOMS
100
ITEM: BOX BOUNDS pp pp pp
0.0000000000000000e+00 4.3679023236814940e+00
0.0000000000000000e+00 4.3679023236814940e+00
0.0000000000000000e+00 4.3679023236814940e+00
ITEM: ATOMS id type x y z 
1 1 3.61544 1.6571 2.27641 
2 1 0.854491 1.66575 1.35641 
3 1 3.02907 0.240172 4.20976 
4 1 2.88289 0.306161 1.28428 
5 1 0.857834 2.39972 0.566978 
6 1 2.25117 1.12425 3.13563 
7 1 1.6064 3.18443 1.33397 
8 1 0.584014 3.33008 1.03871 
9 2 2.2914 0.603823 3.92333 
10 2 1.17971 4.07697 4.08651 
11 1 2.31348 4.2303 2.03136 
12 1 2.09286 1.89858 0.30812 
13 1 4.31857 2.37421 2.51538 
14 1 0.998126 2.81364 3.069 
15 1 3.83685 1.30476 4.06834 
16 1 0.0951216 2.43716 1.40939 
17 1 4.33898 1.57141 3.23421 
18 1 1.59198 1.93885 3.14308 
19 2 4.1668 3.68857 0.628757 
20 2 4.00637 3.27392 2.25253 
21 1 1.2261 0.495557 0.0836097 
22 1 2.80141 1.32515 4.08544 
23 1 0.616432 3.15917 2.12547 
24 1 2.78861 3.6582 1.22576 
25 1 -0.107292 2.78083 0.447397 
26 1 2.99687 3.59414 3.81779 
27 1 1.01834 1.43154 0.374472 
28 1 0.496849 4.19735 3.57768 
29 2 2.32853 1.82422 3.58591 
30 2 3.52487 2.9743 3.94471 
31 1 4.14785 2.39995 3.7702 
32 1 1.63138 0.55052 2.45423 
33 1 1.71609 2.60262 4.00254 
34 1 1.99007 1.65087 2.21108 
35 1 1.74001 0.810732 1.47315 
36 1 0.825892 0.679556 1.06415 
37 1 1.3776 3.61357 0.401539 
38 1 0.251579 1.47403 2.25116 
39 2 0.674329 1.95859 2.92723 
40 2 3.75611 4.16141 1.62742 
41 1 3.39005 3.26572 0.438789 
42 1 1.7585 2.16581 1.31761 
43 1 0.644113 0.498096 2.08734 
44 1 0.451805 4.08234 0.270239 
45 1 1.62867 3.33469 2.37712 
46 1 2.51336 3.5465 2.8623 
47 1 2.0748 4.1838 4.23326 
48 1 4.36561 4.04345 2.34168 
49 2 2.78773 2.02964 1.85338 
50 2 3.65139 2.64416 1.03283 
51 1 1.54506 0.350972 3.46249 
52 1 3.31833 1.90934 3.31339 
53 1 0.00799094 0.510523 2.97055 
54 1 3.42862 2.95914 2.98183 
55 1 3.9979 3.33981 1.42464 
56 1 1.00867 2.16559 2.19369 
57 1 0.0373879 3.34186 3.0976 
58 1 2.32049 3.2914 0.324655 
59 2 1.7451 1.43389 0.926729 
60 2 3.02491 4.52223 2.54524 
61 1 2.66343 0.867463 2.15676 
62 1 0.0301737 0.687523 0.453904 
63 1 1.0993 4.10508 1.66597 
64 1 4.19314 1.05024 1.39518 
65 1 3.27901 3.75709 2.17135 
66 1 1.93852 4.2092 1.02759 
67 1 2.38493 2.79118 1.93088 
68 1 3.43834 2.64674 1.94739 
69 2 1.71579 2.71557 0.627563 
70 2 0.933141 2.56959 1.42625 
71 1 3.33712 0.877832 3.09757 
72 1 3.61203 4.12833 3.09862 
73 1 0.959702 1.12524 3.00359 
74 1 0.785739 2.01569 3.80225 
75 1 0.140735 4.26192 1.22158 
76 1 0.673847 3.10424 3.96547 
77 1 3.59473 4.28326 0.598343 
78 1 4.11072 3.56198 4.05719 
79 2 2.86173 1.57085 2.66971 
80 2 1.76108 2.46001 2.44197 
81 1 2.72283 2.551 3.88931 
82 1 2.18925 0.831337 0.418412 
83 1 3.99748 0.215825 4.00355 
84 1 2.52456 0.153044 3.26329 
85 1 2.71378 2.49419 0.951975 
86 1 3.56641 1.82803 1.28378 
87 1 3.38658 0.991591 0.580735 
88 1 1.69286 1.30112 3.97788 
89 2 1.84241 4.1747 2.83068 
90 2 2.65537 4.2704 0.551236 
91 1 0.456297 0.984867 3.92784 
92 1 3.7015 0.508625 2.1099 
93 1 1.58722 3.55684 3.50701 
94 1 1.02279 4.10693 2.73111 
95 1 2.53379 2.36844 2.8753 
96 1 4.41447 1.74547 0.55544 
97 1 2.56043 1.46737 1.21395 
98 1 3.37255 2.15968 0.208856 
99 2 3.28311 1.04535 1.52311 
100 2 1.13402 1.30175 2.15066 
