ITEM: TIMESTEP
270900
ITEM: NUMBER OF ATOMS
100
ITEM: BOX BOUNDS pp pp pp
0.0000000000000000e+00 4.3679023236814940e+00
0.0000000000000000e+00 4.3679023236814940e+00
0.0000000000000000e+00 4.3679023236814940e+00
ITEM: ATOMS id type x y z 
1 1 3.4192 1.60104 2.39214 
2 1 0.876451 1.57517 1.3982 
3 1 2.95052 0.330313 4.22475 
4 1 2.91792 0.312767 1.31355 
5 1 1.00376 2.45118 0.703361 
6 1 2.05433 1.12877 3.08777 
7 1 1.69342 3.29666 1.30592 
8 1 0.622946 3.34216 1.0553 
9 2 2.27124 0.641895 3.82535 
10 2 1.1398 3.93348 3.97216 
11 1 2.20764 4.09212 1.92898 
12 1 2.03205 1.9115 0.452981 
13 1 4.32295 2.51382 2.60736 
14 1 0.919031 2.85541 3.06131 
15 1 3.99562 1.39602 4.11011 
16 1 0.126445 2.41613 1.50854 
17 1 4.33303 1.59955 3.17524 
18 1 1.56696 2.02762 3.14386 
19 2 4.21735 3.59688 0.571603 
20 2 4.03209 3.26168 2.317 
21 1 1.3264 0.389525 0.154636 
22 1 2.78941 1.34364 4.00643 
23 1 0.551199 3.19548 2.1274 
24 1 2.88102 3.63317 1.24557 
25 1 0.013229 2.78208 0.420887 
26 1 2.97768 3.68372 3.84591 
27 1 1.01685 1.42447 0.423769 
28 1 0.408384 4.29854 3.66991 
29 2 2.22616 1.87748 3.62865 
30 2 3.4341 2.93062 3.96742 
31 1 4.24916 2.62219 3.7012 
32 1 1.58969 0.384773 2.42225 
33 1 1.55371 2.49195 4.07395 
34 1 1.89187 1.53261 2.11476 
35 1 1.88378 0.6518 1.45187 
36 1 0.964748 0.596441 1.13224 
37 1 1.40767 3.47501 0.302622 
38 1 0.0192753 1.53501 2.11024 
39 2 0.718219 2.03757 3.08586 
40 2 3.70463 4.25796 1.52615 
41 1 3.40507 3.21173 0.454017 
42 1 1.76566 2.25072 1.41556 
43 1 0.532547 0.598381 2.12482 
44 1 0.518855 4.03447 0.264543 
45 1 1.59926 3.31849 2.37499 
46 1 2.5395 3.5151 2.7894 
47 1 2.04555 4.13612 4.1164 
48 1 4.32026 4.07503 2.262 
49 2 2.83093 2.04555 1.84819 
50 2 3.82694 2.62867 1.06285 
51 1 1.42012 0.323293 3.52242 
52 1 3.38751 2.00103 3.41477 
53 1 -0.0139765 0.583808 3.00906 
54 1 3.41545 2.99986 3.01233 
55 1 4.00113 3.45183 1.40807 
56 1 0.951565 2.1389 2.27659 
57 1 0.0401256 3.46465 3.11108 
58 1 2.4124 3.18761 0.205573 
59 2 1.70161 1.33211 0.990456 
60 2 2.94807 4.43745 2.39518 
61 1 2.65403 0.884362 2.22275 
62 1 0.242987 0.687763 0.420718 
63 1 1.12388 4.13737 1.68639 
64 1 4.1101 0.905645 1.33591 
65 1 3.33615 3.75502 2.15464 
66 1 2.0486 4.19405 0.764206 
67 1 2.46914 2.96277 1.93005 
68 1 3.55446 2.67074 1.91748 
69 2 1.78238 2.77238 0.619706 
70 2 1.10977 2.75089 1.55355 
71 1 3.3589 0.878717 3.24173 
72 1 3.63418 4.19881 3.1305 
73 1 0.968459 1.23049 2.85551 
74 1 0.641388 2.00635 3.96316 
75 1 0.159207 4.34155 1.25783 
76 1 0.696802 3.12414 4.02819 
77 1 3.58411 4.23399 0.61285 
78 1 4.00548 3.62124 4.06778 
79 2 2.79719 1.47091 2.88978 
80 2 1.75313 2.3556 2.32971 
81 1 2.58942 2.69337 3.67775 
82 1 2.29134 0.887152 0.4939 
83 1 3.92758 0.337722 4.06567 
84 1 2.48609 0.141076 3.14439 
85 1 2.76173 2.55655 1.05072 
86 1 3.52589 1.84096 1.28401 
87 1 3.33369 1.07406 0.594527 
88 1 1.69778 1.30282 3.98917 
89 2 1.73349 4.04763 2.9014 
90 2 2.79553 3.93541 0.285137 
91 1 0.642224 1.0006 3.84496 
92 1 3.69758 0.522216 2.20974 
93 1 1.68161 3.4078 3.45369 
94 1 0.86564 4.00981 2.77596 
95 1 2.49782 2.2387 2.73549 
96 1 4.45843 1.76824 0.630234 
97 1 2.5657 1.50258 1.29959 
98 1 3.2317 2.26194 0.114486 
99 2 3.24695 1.06274 1.63129 
100 2 1.26552 0.989527 1.90151 
