ITEM: TIMESTEP
0
ITEM: NUMBER OF ATOMS
64
ITEM: BOX BOUNDS pp pp pp
0.0000000000000000e+00 1.0862000000000000e+01
0.0000000000000000e+00 1.0862000000000000e+01
0.0000000000000000e+00 1.0862000000000000e+01
ITEM: ATOMS id type mass x y z vx vy vz fx fy fz 
1 1 28.06 0 0 0 -9.81014 -13.3819 -5.48388 4.63445e-15 4.63442e-15 4.63445e-15 
2 1 28.06 0 2.7155 2.7155 4.93183 -15.7124 6.35066 6.74761e-15 -1.42789e-15 -1.45183e-15 
3 1 28.06 2.7155 0 2.7155 -16.5058 -9.97907 11.1383 -1.42785e-15 6.74769e-15 -1.45183e-15 
4 1 28.06 2.7155 2.7155 0 -10.7293 14.8512 -15.3023 -8.77716e-16 -8.77716e-16 7.3217e-15 
5 1 28.06 1.35775 1.35775 1.35775 -3.10802 -9.0181 13.4445 -6.32401e-25 0 -5.04871e-29 
9 1 28.06 5.431 0 0 6.67008 -9.72018 -2.20528 -8.61538e-16 6.20516e-15 6.37289e-15 
10 1 28.06 5.431 2.7155 2.7155 3.68858 5.16839 8.40967 1.29957e-15 -2.69577e-15 -2.69577e-15 
13 1 28.06 6.78875 1.35775 1.35775 -1.38673 14.0881 -15.6771 -7.42596e-15 7.18081e-17 4.78845e-17 
11 1 28.06 8.1465 0 2.7155 -5.37048 4.24775 12.5107 1.47407e-14 6.52435e-15 -5.10413e-15 
12 1 28.06 8.1465 2.7155 0 -1.92131 -6.49964 5.36343 1.67504e-14 -3.16636e-15 8.43818e-15 
17 1 28.06 0 5.431 0 -14.6964 17.3054 4.11011 6.20519e-15 -8.61582e-16 6.37284e-15 
19 1 28.06 2.7155 5.431 2.7155 7.96264 -7.49205 11.8122 -2.69576e-15 1.29957e-15 -2.69576e-15 
21 1 28.06 1.35775 6.78875 1.35775 -9.9399 -11.9462 -14.9424 7.18486e-17 -7.42596e-15 4.78979e-17 
8 1 28.06 4.07325 4.07325 1.35775 4.15368 -0.533781 -9.82523 3.17479e-15 3.17479e-15 -1.34752e-15 
25 1 28.06 5.431 5.431 0 -8.49727 -5.64135 -5.82306 -9.58164e-17 -9.58164e-17 5.82273e-15 
29 1 28.06 6.78875 6.78875 1.35775 7.98662 -7.35437 9.2113 -6.90757e-15 -6.9076e-15 8.93172e-16 
16 1 28.06 9.50425 4.07325 1.35775 -13.4452 -4.99313 10.943 -1.61762e-14 4.31532e-15 -2.46404e-15 
27 1 28.06 8.1465 5.431 2.7155 11.458 -14.1212 -8.51571 1.39116e-14 5.56803e-17 -1.4039e-15 
18 1 28.06 0 8.1465 2.7155 -9.95637 13.4275 -5.61543 6.52435e-15 1.47407e-14 -5.10415e-15 
20 1 28.06 2.7155 8.1465 0 3.73698 12.7689 3.5589 -3.16639e-15 1.67504e-14 8.43818e-15 
24 1 28.06 4.07325 9.50425 1.35775 -14.9877 -10.8349 -3.98252 4.31528e-15 -1.61762e-14 -2.46404e-15 
26 1 28.06 5.431 8.1465 2.7155 -13.3693 -3.77852 12.4534 5.56901e-17 1.39116e-14 -1.40386e-15 
28 1 28.06 8.1465 8.1465 0 13.3464 -2.00562 -3.57731 1.53628e-14 1.53628e-14 6.86736e-15 
32 1 28.06 9.50425 9.50425 1.35775 -10.6189 -9.2852 -10.5099 -1.52909e-14 -1.52909e-14 -8.05156e-16 
33 1 28.06 0 0 5.431 -3.2352 2.03471 -16.4136 6.22912e-15 6.22917e-15 -8.85509e-16 
36 1 28.06 2.7155 2.7155 5.431 -1.63866 10.0396 -5.60145 -2.67181e-15 -2.6718e-15 2.09698e-15 
37 1 28.06 1.35775 1.35775 6.78875 -1.75061 8.65214 8.09823 9.57726e-17 9.57484e-17 -7.40201e-15 
7 1 28.06 4.07325 1.35775 4.07325 -12.3983 -1.46836 -5.02888 4.1715e-15 -1.14816e-15 3.37412e-15 
41 1 28.06 5.431 0 5.431 10.6853 -7.54985 13.9206 -9.58164e-17 5.8706e-15 -2.71051e-20 
45 1 28.06 6.78875 1.35775 6.78875 4.02854 11.3348 7.40781 -6.95547e-15 9.17126e-16 -6.93154e-15 
15 1 28.06 9.50425 1.35775 4.07325 -15.9748 -15.5805 7.53277 -1.38637e-14 -9.72808e-16 5.73466e-15 
44 1 28.06 8.1465 2.7155 5.431 7.62237 14.6515 -15.167 1.57536e-14 -3.34177e-15 2.74296e-15 
6 1 28.06 1.35775 4.07325 4.07325 -3.77531 -10.7782 9.26679 -1.14816e-15 4.1715e-15 3.37409e-15 
49 1 28.06 0 5.431 5.431 0.376201 -1.54563 5.594 5.8706e-15 -9.58164e-17 -2.71051e-20 
53 1 28.06 1.35775 6.78875 6.78875 -9.76191 -8.55589 -7.22929 9.17116e-16 -6.9555e-15 -6.93153e-15 
14 1 28.06 6.78875 4.07325 4.07325 16.3112 3.85059 -14.978 -7.35412e-15 5.4634e-15 9.82016e-16 
23 1 28.06 4.07325 6.78875 4.07325 -4.99236 13.9104 -14.856 5.4634e-15 -7.35413e-15 9.82027e-16 
40 1 28.06 4.07325 4.07325 6.78875 -10.2186 4.22371 11.4447 3.17478e-15 3.1748e-15 -5.06554e-15 
57 1 28.06 5.431 5.431 5.431 11.0203 16.1213 12.331 -1.91633e-16 -1.91579e-16 -1.91633e-16 
61 1 28.06 6.78875 6.78875 6.78875 9.69648 -8.51114 6.27964 -6.80402e-15 -6.80399e-15 -6.804e-15 
31 1 28.06 9.50425 6.78875 4.07325 -15.2607 0.0965659 8.84333 -1.62002e-14 -9.3955e-15 4.21948e-15 
48 1 28.06 9.50425 4.07325 6.78875 10.8428 -12.6293 -12.9529 -1.66228e-14 4.76191e-15 -9.02077e-15 
22 1 28.06 1.35775 9.50425 4.07325 8.31906 6.76854 9.98906 -9.72828e-16 -1.38637e-14 5.73462e-15 
52 1 28.06 2.7155 8.1465 5.431 15.5924 9.26042 -8.32629 -3.34168e-15 1.57536e-14 2.74292e-15 
30 1 28.06 6.78875 9.50425 4.07325 -10.5417 12.514 -15.6517 -9.39548e-15 -1.62002e-14 4.2195e-15 
56 1 28.06 4.07325 9.50425 6.78875 -16.4989 6.12384 -14.8219 4.76191e-15 -1.66229e-14 -9.02077e-15 
60 1 28.06 8.1465 8.1465 5.431 1.14473 -10.5172 -1.84522 1.53071e-14 1.53071e-14 1.14821e-15 
64 1 28.06 9.50425 9.50425 6.78875 6.12058 -12.3884 7.42382 -1.52831e-14 -1.52831e-14 -7.21043e-15 
34 1 28.06 0 2.7155 8.1465 14.3883 16.9024 12.2243 6.54823e-15 -5.05626e-15 1.47168e-14 
35 1 28.06 2.7155 0 8.1465 15.2517 -9.50049 -2.9351 -5.05623e-15 6.54826e-15 1.47168e-14 
39 1 28.06 4.07325 1.35775 9.50425 -1.1217 3.13657 3.73985 6.1812e-15 -5.981e-16 -1.42384e-14 
42 1 28.06 5.431 2.7155 8.1465 14.3192 -3.57328 3.88957 7.8056e-18 -1.45185e-15 1.38158e-14 
43 1 28.06 8.1465 0 8.1465 6.65631 -6.05704 -9.18396 1.4366e-14 5.72692e-15 1.42702e-14 
47 1 28.06 9.50425 1.35775 9.50425 2.89187 10.5784 -15.9469 -1.43899e-14 1.43711e-16 -1.4342e-14 
38 1 28.06 1.35775 4.07325 9.50425 4.19355 -1.80483 13.7573 -5.981e-16 6.1812e-15 -1.42384e-14 
51 1 28.06 2.7155 5.431 8.1465 8.86099 16.5828 13.4693 -1.45183e-15 7.77882e-18 1.38158e-14 
46 1 28.06 6.78875 4.07325 9.50425 -8.57544 -10.0466 -15.4302 -9.02078e-15 4.66611e-15 -1.66228e-14 
55 1 28.06 4.07325 6.78875 9.50425 10.5278 -2.21528 -2.07257 4.66611e-15 -9.02078e-15 -1.66229e-14 
59 1 28.06 8.1465 5.431 8.1465 -14.434 -3.7964 14.0406 1.5355e-14 3.02885e-16 1.53072e-14 
63 1 28.06 9.50425 6.78875 9.50425 16.6754 14.8202 1.05843 -1.52831e-14 -7.21043e-15 -1.52831e-14 
50 1 28.06 0 8.1465 8.1465 11.7115 16.1323 -5.32494 5.72695e-15 1.4366e-14 1.42702e-14 
54 1 28.06 1.35775 9.50425 9.50425 3.52891 7.43558 7.52641 1.43731e-16 -1.439e-14 -1.43421e-14 
58 1 28.06 5.431 8.1465 8.1465 6.44465 -4.71964 8.01876 3.02898e-16 1.5355e-14 1.53072e-14 
62 1 28.06 6.78875 9.50425 9.50425 -6.62402 -13.4921 -9.93648 -7.21042e-15 -1.52831e-14 -1.52831e-14 
ITEM: TIMESTEP
1
ITEM: NUMBER OF ATOMS
64
ITEM: BOX BOUNDS pp pp pp
0.0000000000000000e+00 1.0862000000000000e+01
0.0000000000000000e+00 1.0862000000000000e+01
0.0000000000000000e+00 1.0862000000000000e+01
ITEM: ATOMS id type mass x y z vx vy vz fx fy fz 
1 1 28.06 1.40452e-16 1.40451e-16 1.40452e-16 -9.81014 -13.3819 -5.48388 2.76772e-15 7.95056e-15 2.76772e-15 
2 1 28.06 2.04494e-16 2.7155 2.7155 4.93183 -15.7124 6.35066 3.22206e-15 1.23548e-15 -3.10223e-15 
3 1 28.06 2.7155 2.04496e-16 2.7155 -16.5058 -9.97907 11.1383 -9.57341e-16 5.41494e-15 -9.09402e-16 
4 1 28.06 2.7155 2.7155 2.21892e-16 -10.7293 14.8512 -15.3023 -9.09375e-16 -9.09375e-16 5.51067e-15 
5 1 28.06 1.35775 1.35775 1.35775 -3.10802 -9.0181 13.4445 1.24472e-15 1.24472e-15 1.22078e-15 
9 1 28.06 5.431 1.88054e-16 1.93137e-16 6.67008 -9.72018 -2.20528 -2.40831e-15 3.82008e-15 2.69583e-15 
10 1 28.06 5.431 2.7155 2.7155 3.68858 5.16839 8.40967 1.32354e-15 -2.57603e-15 -2.55208e-15 
13 1 28.06 6.78875 1.35775 1.35775 -1.38673 14.0881 -15.6771 -9.59486e-15 2.76755e-15 2.76763e-15 
11 1 28.06 8.1465 1.97728e-16 2.7155 -5.37048 4.24775 12.5107 1.69575e-14 3.54117e-15 -2.5281e-15 
12 1 28.06 8.1465 2.7155 2.55728e-16 -1.92131 -6.49964 5.36343 1.69575e-14 -2.67183e-15 3.54111e-15 
17 1 28.06 1.88055e-16 5.431 1.93136e-16 -14.6964 17.3054 4.11011 3.22202e-15 -1.81031e-15 3.29393e-15 
19 1 28.06 2.7155 5.431 2.7155 7.96264 -7.49205 11.8122 -2.57601e-15 1.32352e-15 -2.55206e-15 
21 1 28.06 1.35775 6.78875 1.35775 -9.9399 -11.9462 -14.9424 2.76763e-15 -9.59488e-15 2.76763e-15 
8 1 28.06 4.07325 4.07325 1.35775 4.15368 -0.533781 -9.82523 1.9788e-15 1.97878e-15 1.61945e-15 
25 1 28.06 5.431 5.431 1.76464e-16 -8.49727 -5.64135 -5.82306 -7.18284e-17 -7.18555e-17 1.22856e-15 
29 1 28.06 6.78875 6.78875 1.35775 7.98662 -7.35437 9.2113 -7.52954e-15 -7.52952e-15 5.70219e-15 
16 1 28.06 9.50425 4.07325 1.35775 -13.4452 -4.99313 10.943 -1.24041e-14 3.31851e-15 2.64787e-15 
27 1 28.06 8.1465 5.431 2.7155 11.458 -14.1212 -8.51571 1.38637e-14 3.17296e-17 -1.33204e-15 
18 1 28.06 1.97728e-16 8.1465 2.7155 -9.95637 13.4275 -5.61543 3.1424e-15 1.73562e-14 -2.92678e-15 
20 1 28.06 2.7155 8.1465 2.55728e-16 3.73698 12.7689 3.5589 -2.6718e-15 1.69575e-14 3.54111e-15 
24 1 28.06 4.07325 9.50425 1.35775 -14.9877 -10.8349 -3.98252 5.51136e-15 -1.45969e-14 4.55046e-16 
26 1 28.06 5.431 8.1465 2.7155 -13.3693 -3.77852 12.4534 3.17495e-17 1.38637e-14 -1.33203e-15 
28 1 28.06 8.1465 8.1465 2.08123e-16 13.3464 -2.00562 -3.57731 1.68539e-14 1.68539e-14 2.52042e-15 
32 1 28.06 9.50425 9.50425 1.35775 -10.6189 -9.2852 -10.5099 -1.63115e-14 -1.71089e-14 3.41358e-15 
33 1 28.06 1.8878e-16 1.88782e-16 5.431 -3.2352 2.03471 -16.4136 6.03684e-15 4.55139e-16 -2.39501e-16 
36 1 28.06 2.7155 2.7155 5.431 -1.63866 10.0396 -5.60145 -2.55206e-15 -2.55208e-15 2.04906e-15 
37 1 28.06 1.35775 1.35775 6.78875 -1.75061 8.65214 8.09823 2.76764e-15 2.76755e-15 -9.59485e-15 
7 1 28.06 4.07325 1.35775 4.07325 -12.3983 -1.46836 -5.02888 4.2194e-15 -6.69122e-16 3.42208e-15 
41 1 28.06 5.431 1.77915e-16 5.431 10.6853 -7.54985 13.9206 -2.39609e-17 5.1041e-15 -7.18826e-17 
45 1 28.06 6.78875 1.35775 6.78875 4.02854 11.3348 7.40781 -9.44338e-15 3.78832e-15 -9.41945e-15 
15 1 28.06 9.50425 1.35775 4.07325 -15.9748 -15.5805 7.53277 -1.64869e-14 2.39291e-15 2.72829e-15 
44 1 28.06 8.1465 2.7155 5.431 7.62237 14.6515 -15.167 1.57536e-14 -3.29385e-15 2.74296e-15 
6 1 28.06 1.35775 4.07325 4.07325 -3.77531 -10.7782 9.26679 -6.69122e-16 4.2194e-15 3.42205e-15 
49 1 28.06 1.77915e-16 5.431 5.431 0.376201 -1.54563 5.594 5.1041e-15 -2.39338e-17 -7.18555e-17 
53 1 28.06 1.35775 6.78875 6.78875 -9.76191 -8.55589 -7.22929 3.78831e-15 -9.44336e-15 -9.41944e-15 
14 1 28.06 6.78875 4.07325 4.07325 16.3112 3.85059 -14.978 -7.35412e-15 5.4634e-15 9.82016e-16 
23 1 28.06 4.07325 6.78875 4.07325 -4.99236 13.9104 -14.856 5.4634e-15 -7.35413e-15 9.82027e-16 
40 1 28.06 4.07325 4.07325 6.78875 -10.2186 4.22371 11.4447 3.17478e-15 3.1748e-15 -5.06554e-15 
57 1 28.06 5.431 5.431 5.431 11.0203 16.1213 12.331 -1.91633e-16 -1.91579e-16 -1.91633e-16 
61 1 28.06 6.78875 6.78875 6.78875 9.69648 -8.51114 6.27964 -6.80402e-15 -6.80399e-15 -6.804e-15 
31 1 28.06 9.50425 6.78875 4.07325 -15.2607 0.0965659 8.84333 -1.60325e-14 -9.41945e-15 4.17158e-15 
48 1 28.06 9.50425 4.07325 6.78875 10.8428 -12.6293 -12.9529 -1.4063e-14 2.32188e-15 -6.65259e-15 
22 1 28.06 1.35775 9.50425 4.07325 8.31906 6.76854 9.98906 -3.98038e-16 -1.3696e-14 5.51913e-15 
52 1 28.06 2.7155 8.1465 5.431 15.5924 9.26042 -8.32629 -3.29376e-15 1.57536e-14 2.74291e-15 
30 1 28.06 6.78875 9.50425 4.07325 -10.5417 12.514 -15.6517 -9.41944e-15 -1.60325e-14 4.1716e-15 
56 1 28.06 4.07325 9.50425 6.78875 -16.4989 6.12384 -14.8219 4.71401e-15 -1.64552e-14 -9.04472e-15 
60 1 28.06 8.1465 8.1465 5.431 1.14473 -10.5172 -1.84522 1.53071e-14 1.53071e-14 1.14821e-15 
64 1 28.06 9.50425 9.50425 6.78875 6.12058 -12.3884 7.42382 -1.46928e-14 -1.54902e-14 -6.90756e-15 
34 1 28.06 1.98451e-16 2.7155 8.1465 14.3883 16.9024 12.2243 1.19685e-15 -1.59893e-16 1.45414e-14 
35 1 28.06 2.7155 1.98452e-16 8.1465 15.2517 -9.50049 -2.9351 -2.55207e-15 3.58903e-15 1.69335e-14 
39 1 28.06 4.07325 1.35775 9.50425 -1.1217 3.13657 3.73985 6.03754e-15 -9.51116e-17 -1.40228e-14 
42 1 28.06 5.431 2.7155 8.1465 14.3192 -3.57328 3.88957 1.03578e-16 -1.37996e-15 1.39356e-14 
43 1 28.06 8.1465 1.73561e-16 8.1465 6.65631 -6.05704 -9.18396 1.683e-14 2.47252e-15 1.68779e-14 
47 1 28.06 9.50425 1.35775 9.50425 2.89187 10.5784 -15.9469 -1.41187e-14 4.23408e-16 -1.41187e-14 
38 1 28.06 1.35775 4.07325 9.50425 4.19355 -1.80483 13.7573 5.02907e-16 5.4395e-15 -1.46208e-14 
51 1 28.06 2.7155 5.431 8.1465 8.86099 16.5828 13.4693 -1.37997e-15 1.03582e-16 1.39355e-14 
46 1 28.06 6.78875 4.07325 9.50425 -8.57544 -10.0466 -15.4302 -8.97288e-15 4.69007e-15 -1.63594e-14 
55 1 28.06 4.07325 6.78875 9.50425 10.5278 -2.21528 -2.07257 4.6901e-15 -8.97291e-15 -1.63593e-14 
59 1 28.06 8.1465 5.431 8.1465 -14.434 -3.7964 14.0406 1.5355e-14 3.02885e-16 1.53072e-14 
63 1 28.06 9.50425 6.78875 9.50425 16.6754 14.8202 1.05843 -1.50915e-14 -7.30628e-15 -1.50915e-14 
50 1 28.06 1.73561e-16 8.1465 8.1465 11.7115 16.1323 -5.32494 2.07383e-15 1.72287e-14 1.64792e-14 
54 1 28.06 1.35775 9.50425 9.50425 3.52891 7.43558 7.52641 3.0149e-15 -1.67102e-14 -1.67102e-14 
58 1 28.06 5.431 8.1465 8.1465 6.44465 -4.71964 8.01876 3.02898e-16 1.5355e-14 1.53072e-14 
62 1 28.06 6.78875 9.50425 9.50425 -6.62402 -13.4921 -9.93648 -7.30621e-15 -1.50915e-14 -1.50915e-14 
