ITEM: TIMESTEP
1000
ITEM: NUMBER OF ATOMS
64
ITEM: BOX BOUNDS pp pp pp
-2.4349041769511359e-06 1.0862002434904156e+01
-2.4349041769511359e-06 1.0862002434904156e+01
-2.4349041769511359e-06 1.0862002434904156e+01
ITEM: ATOMS id type mass x y z vx vy vz fx fy fz 
1 1 28.06 -0.215948 0.116241 -0.0830237 -8.70478 -13.9899 -2.03466 1.90712 1.00083 1.5858 
2 1 28.06 0.290985 3.05219 2.84857 6.13472 -12.7827 5.82231 -2.55478 -3.72617 -0.33979 
3 1 28.06 2.74846 -0.106862 2.69967 7.8493 18.5322 1.05338 -1.94611 2.35117 1.50266 
4 1 28.06 2.6718 2.84298 0.0722688 10.0877 -13.4679 -6.24413 0.23668 -2.66149 0.446342 
5 1 28.06 1.34095 1.43583 1.47534 5.14246 -1.33457 2.91156 -0.25952 -0.562527 -0.974424 
9 1 28.06 5.52065 0.206182 0.0019506 9.78418 8.19133 4.81521 -0.132596 -0.662615 0.509126 
10 1 28.06 5.25111 2.55951 2.71571 -7.3542 -1.75477 7.37905 0.182169 -0.233602 -1.22084 
13 1 28.06 6.90154 1.42 1.442 -7.2816 12.639 -20.5203 -2.8907 -1.43868 1.45383 
11 1 28.06 8.16661 0.0247317 2.76662 2.64669 -3.14063 20.3148 0.725979 -1.40349 0.119909 
12 1 28.06 7.84732 2.6582 -0.0171039 4.18845 4.63646 8.43464 2.13231 4.47225 0.341926 
17 1 28.06 -0.0747172 5.40736 -0.105567 8.28351 -0.696993 -1.99256 -1.06066 -1.67475 -0.481913 
19 1 28.06 2.9852 5.29808 2.75017 -4.7675 4.31239 -20.0073 -0.518443 2.87535 -2.05652 
21 1 28.06 1.66976 6.62648 0.76206 -6.60938 22.7209 3.8038 -0.140845 -2.91358 4.46312 
8 1 28.06 4.15724 4.05842 1.23302 12.4363 8.02295 -5.12372 -0.00608114 -1.16627 2.00786 
25 1 28.06 5.55017 5.3913 0.117015 -3.90311 6.19175 -6.47647 0.215943 2.47366 -2.2482 
29 1 28.06 7.19473 6.78542 1.38599 0.681799 9.3684 -4.52111 -2.10624 0.383715 0.449761 
16 1 28.06 9.54875 3.97089 1.57443 -12.7276 8.77019 7.77859 -1.10739 1.35226 -2.91608 
27 1 28.06 8.33568 5.32168 3.05204 9.85776 -15.6005 -1.28413 0.596404 2.13549 -2.0415 
18 1 28.06 0.55678 7.73606 2.43378 20.8535 9.54158 13.5628 -1.67962 4.0025 2.25533 
20 1 28.06 2.89935 8.26544 0.0386199 -8.1368 7.9138 15.5715 -1.55873 1.72173 -2.88791 
24 1 28.06 4.01631 9.80848 1.26241 13.9131 5.34339 16.1176 2.7424 -1.84391 -0.471561 
26 1 28.06 5.41202 8.36163 2.52877 3.06602 -9.80464 17.075 2.51827 -1.35202 0.252747 
28 1 28.06 8.32956 8.34468 -0.0609823 -1.40677 2.79646 -21.7784 -0.002142 -1.46786 1.31867 
32 1 28.06 9.72553 9.55922 1.44209 19.5375 8.20013 0.951884 -0.192832 -1.37106 0.718561 
33 1 28.06 0.168637 -0.0255824 5.79513 -11.4175 -5.42543 -20.2423 -0.102418 1.03534 -3.02829 
36 1 28.06 2.39031 2.43968 5.03741 -16.6648 1.09434 -17.2096 2.75557 0.372033 3.74296 
37 1 28.06 1.58055 1.51941 6.90881 -10.179 -6.38857 -4.33978 -1.55521 -1.61364 0.189685 
7 1 28.06 3.97342 1.17873 4.1872 15.7038 -14.0137 -19.974 2.32761 -0.987099 -1.8946 
41 1 28.06 5.6571 -0.116457 5.40765 1.00815 -8.13298 11.2171 -5.26274 1.13503 3.23831 
45 1 28.06 6.46981 1.19022 7.16916 -13.734 7.13774 -9.58974 0.907702 2.0097 -2.99091 
15 1 28.06 9.48741 1.36912 4.09213 11.2106 -0.749151 0.133609 2.1745 0.837176 1.60975 
44 1 28.06 7.83904 2.65283 5.37643 16.3078 -3.70379 10.5753 0.0749422 -1.86182 0.859205 
6 1 28.06 1.5787 4.27657 4.19726 -12.3822 1.49333 3.54023 -0.0182112 1.17255 -0.879066 
49 1 28.06 -0.0252314 5.36391 5.31348 -21.1549 -18.9269 -4.20014 -1.45895 3.02415 1.59683 
53 1 28.06 1.27648 6.87599 6.93055 -7.73674 -9.77817 4.93137 1.17352 -2.58191 -3.16551 
14 1 28.06 6.71092 3.9254 3.77881 2.75396 12.2105 1.7615 -0.0703416 -0.561472 2.05363 
23 1 28.06 4.52515 6.67728 3.93582 5.97994 2.65364 -21.729 -1.26862 -0.783682 0.988364 
40 1 28.06 3.96351 3.8493 6.59659 7.11473 2.21675 2.2127 -2.51296 -0.932302 -1.11498 
57 1 28.06 5.57728 4.97404 5.4663 -4.73715 -5.79499 9.62036 0.680168 3.94444 -0.0391001 
61 1 28.06 6.67704 7.08558 6.68864 5.53041 13.3501 -7.47488 -1.4113 0.489942 -2.4648 
31 1 28.06 9.5601 7.20591 4.06988 -7.61281 1.87405 -4.81969 1.75823 -3.28167 -0.90185 
48 1 28.06 9.26317 4.0481 6.57828 6.95247 6.70869 3.66998 1.22125 0.446406 1.99937 
22 1 28.06 1.6885 9.48971 4.34896 4.73222 14.0512 -6.18162 -1.90927 -1.12875 -1.72322 
52 1 28.06 2.98292 7.85874 5.37294 4.79171 -1.31971 -0.703934 -1.38479 -0.392562 0.840033 
30 1 28.06 6.82876 9.46347 4.19276 -12.6056 -1.08759 12.3897 -1.96833 2.41374 -6.57044 
56 1 28.06 3.69664 9.41431 6.92484 0.592062 -4.63681 -19.1417 4.62075 0.759301 -0.471161 
60 1 28.06 8.15453 8.48749 5.29872 -7.12238 1.99329 13.8122 2.21445 -4.4851 4.18751 
64 1 28.06 9.46081 9.52158 6.81577 -11.3451 3.24875 2.08485 -1.27666 3.10439 0.622099 
34 1 28.06 0.110314 2.64268 8.14707 12.1742 -13.1376 -9.00928 -3.62219 1.94301 -0.288547 
35 1 28.06 2.56155 0.0155824 8.31044 -11.0526 -5.00436 -17.2349 -0.461276 -1.0641 0.390787 
39 1 28.06 3.8961 1.30521 9.64625 -15.6025 9.36877 5.11219 -0.398987 0.466546 0.737421 
42 1 28.06 4.97468 2.64667 8.21468 -0.459987 15.6865 10.6729 2.71955 0.837295 0.396702 
43 1 28.06 8.15738 0.219602 8.25548 -2.30079 -4.92257 8.54229 -0.606666 -3.70141 -0.0654637 
47 1 28.06 9.26051 1.58238 9.59293 -9.26974 -8.47588 5.21512 3.19239 -0.736345 -1.29616 
38 1 28.06 1.40374 3.92954 9.51462 11.5439 -4.6213 -3.71337 -1.29498 2.62819 -0.979116 
51 1 28.06 2.7105 5.24753 7.99855 1.41768 5.1727 -13.0376 -1.0724 0.654213 0.724807 
46 1 28.06 6.66245 4.13377 9.3158 -2.74736 -11.33 4.88529 -1.279 -0.721141 0.257555 
55 1 28.06 3.86239 6.75463 9.41038 -10.6682 -13.8153 -1.19703 4.00487 -0.765731 0.68952 
59 1 28.06 7.81345 5.69636 7.8728 -9.83328 -0.753842 10.5563 2.12727 -4.04965 0.854242 
63 1 28.06 9.21098 6.6653 9.41102 -3.70321 0.818836 -1.48731 2.44915 1.88976 -0.284144 
50 1 28.06 -0.165344 8.20802 8.02233 11.0524 3.31116 5.10311 -0.0821543 -1.76125 3.63548 
54 1 28.06 1.13979 9.43723 9.62347 6.58985 -22.9531 6.42863 0.803376 0.452409 -0.646961 
58 1 28.06 5.45388 8.26519 8.33649 2.57118 8.26454 18.1189 -2.5291 -1.02299 -2.03966 
62 1 28.06 6.76823 9.51681 9.64431 0.731599 -10.2913 -4.90697 1.24067 2.52608 -0.557211 
ITEM: TIMESTEP
2000
ITEM: NUMBER OF ATOMS
64
ITEM: BOX BOUNDS pp pp pp
-1.0294348144590515e-05 1.0862010294348067e+01
-1.0294348144590515e-05 1.0862010294348067e+01
-1.0294348144590515e-05 1.0862010294348067e+01
ITEM: ATOMS id type mass x y z vx vy vz fx fy fz 
3 1 28.06 1.64651 2.76555 3.43379 -2.31881 3.36249 10.3107 -0.713567 -0.777545 -2.28768 
5 1 28.06 10.3352 0.371346 3.37792 -16.8653 -8.06546 -2.32386 -0.379647 -0.650042 -0.527524 
9 1 28.06 4.00807 0.636543 0.973085 3.5135 7.53198 6.64532 -0.777874 0.545793 -1.24677 
10 1 28.06 6.35341 4.24673 2.64522 -1.22727 27.964 -0.375855 -1.96387 0.14728 -0.47616 
13 1 28.06 7.11434 0.845618 0.128479 1.08196 7.97708 5.5487 1.98821 -0.678953 1.24683 
7 1 28.06 4.73997 0.626129 3.73154 5.30871 -0.710232 16.4311 -0.462782 2.08823 0.915703 
2 1 28.06 10.072 2.19514 4.99726 1.46891 -1.36532 6.96933 1.66895 -0.565705 0.510705 
11 1 28.06 8.56673 9.99504 1.79243 -8.54242 -0.927861 11.4516 1.5357 1.47932 0.361952 
12 1 28.06 9.4507 3.90493 10.0939 8.47915 8.84954 -12.6202 -0.656457 1.03992 -0.175891 
19 1 28.06 4.00119 2.82139 2.13533 6.222 -28.4854 -5.43885 -0.312189 1.51286 1.12614 
8 1 28.06 3.94895 4.13993 -0.0665261 1.7908 -7.27721 -4.3056 -0.42522 0.700014 0.961296 
25 1 28.06 6.10613 4.99014 0.215762 1.37749 3.64467 -8.90144 0.504988 -2.49091 0.939918 
29 1 28.06 6.71315 7.26147 0.336525 0.664417 -7.58743 7.58498 -1.87605 2.95513 0.971884 
16 1 28.06 8.93216 3.07297 1.45371 -5.37497 -19.4088 -7.81951 -0.827727 0.198931 0.829464 
27 1 28.06 8.81471 6.21276 1.39329 -0.266525 8.96364 -6.91859 0.126781 -2.68869 2.75101 
21 1 28.06 10.4103 8.32289 0.980408 9.68258 2.25985 -8.35527 2.99436 1.04758 4.17933 
20 1 28.06 3.50111 5.99145 2.14175 18.4387 2.93987 9.14362 -0.783647 -0.778021 -1.0752 
24 1 28.06 2.56499 9.70543 1.63414 21.7737 4.49662 2.02583 -0.823019 3.11194 1.56913 
26 1 28.06 5.63958 9.65856 1.50278 -2.75744 11.298 -20.404 1.8209 -2.14035 -0.360121 
1 1 28.06 0.684327 0.62212 1.23994 -10.9295 10.4647 4.05221 0.190851 -0.404602 -0.401087 
18 1 28.06 2.92051 9.88348 3.93936 15.8229 3.4996 -15.6219 -1.59292 0.15466 -0.214344 
28 1 28.06 9.1173 7.92596 10.2368 8.42016 -0.748743 -6.47285 -3.76575 0.417582 -6.62014 
32 1 28.06 8.01744 7.66772 3.76731 -5.20325 -10.8502 -19.0892 2.7038 0.992281 -0.621336 
36 1 28.06 2.37944 1.40569 5.16168 -7.91491 -7.65685 1.49393 0.540798 -0.307728 1.47602 
37 1 28.06 0.76383 10.9095 6.47871 -2.59495 11.9157 1.77909 -0.536723 -1.15333 -2.57953 
41 1 28.06 7.04631 1.77151 4.7066 9.28012 -11.6557 0.859316 -2.25784 -1.21334 3.67651 
45 1 28.06 7.58155 2.94811 7.57426 14.7231 8.33935 15.5695 -2.2352 -0.515339 -2.51071 
15 1 28.06 8.33067 0.286302 6.54281 2.36296 9.05768 13.3327 0.578337 0.920607 0.106527 
44 1 28.06 8.28144 3.62838 4.07882 -10.222 -4.07777 -9.73059 -0.0617858 2.84807 0.438377 
6 1 28.06 10.7017 4.32389 2.6248 -9.51645 8.91091 -25.5471 -0.0285523 0.343275 2.48462 
53 1 28.06 0.414397 5.48427 6.69706 11.0353 -10.8318 5.99124 -0.185265 0.153535 0.784259 
14 1 28.06 5.88367 6.66672 3.11321 -6.17801 13.4201 -4.73712 -1.11883 -0.423691 -0.846331 
23 1 28.06 3.82243 7.81267 4.51424 -19.9126 -2.52248 11.943 0.292768 -2.50431 0.383023 
40 1 28.06 4.59422 4.57578 5.09039 8.88909 -4.12407 8.3797 2.85767 4.12472 -2.21913 
57 1 28.06 7.21012 5.78257 5.62314 11.9231 10.7037 -5.11812 -0.5967 -2.37315 -1.91946 
61 1 28.06 7.16806 5.54564 7.94457 1.00609 3.29574 2.62123 -1.60397 -0.934275 -0.075003 
49 1 28.06 10.0454 5.94628 4.75582 -3.09918 -12.987 -1.1346 -1.72615 -0.387021 -2.61005 
31 1 28.06 1.00448 5.62937 1.13229 -21.1464 -8.68935 -4.86896 1.19475 1.17286 -1.43932 
48 1 28.06 9.77307 3.3814 7.47439 -7.84939 -17.6736 3.80711 0.766826 1.3472 -1.06592 
22 1 28.06 2.5558 8.04976 6.91389 -0.766495 -5.66496 -9.67952 -1.86358 -0.956226 -1.08773 
52 1 28.06 -0.10719 8.10836 6.98538 -13.0295 0.515729 25.2945 -0.0894394 0.465587 -1.25249 
56 1 28.06 5.27932 9.22858 5.80634 -8.36126 0.0730385 -3.93492 2.91163 -0.0396185 0.410473 
30 1 28.06 6.86785 10.0719 3.79274 17.0046 9.32116 -16.8296 1.0167 -0.625606 1.01013 
33 1 28.06 10.4573 9.11673 4.63454 5.0326 11.3476 -17.8842 -1.16877 -0.973053 0.855925 
60 1 28.06 7.79981 8.26157 6.43362 15.3492 3.83668 11.8726 0.62507 2.04508 0.00985864 
64 1 28.06 7.59809 10.104 8.84225 -1.54191 -12.5443 10.4839 0.597335 -1.25856 -1.00693 
4 1 28.06 2.16203 1.10827 9.90827 20.5843 3.19778 22.7721 -1.98125 -2.71821 1.52313 
34 1 28.06 1.88288 3.43514 6.68888 0.994834 1.72911 1.74498 0.21132 -0.624711 -1.24086 
39 1 28.06 4.90027 2.41949 8.52659 11.5368 2.27294 -9.63389 -0.815207 0.199568 0.352499 
42 1 28.06 4.64113 2.67569 6.14085 -0.399752 8.81043 6.66487 1.57531 -4.46141 -1.25326 
43 1 28.06 9.69057 0.446178 10.0444 4.24946 0.918234 10.9868 0.598843 0.609002 1.57234 
47 1 28.06 10.707 1.4658 8.01713 -7.49146 -8.52567 7.66177 0.86036 -0.787312 2.12965 
17 1 28.06 0.791352 4.70471 9.6868 -21.3827 0.779208 -5.89976 1.11592 1.08478 0.0654606 
38 1 28.06 2.49009 3.01889 8.84297 3.65425 -16.1962 -4.93503 -0.108411 1.07416 0.800157 
51 1 28.06 3.27551 5.67804 6.77085 -6.74985 -14.2489 -34.1034 -0.68743 0.910062 1.15516 
46 1 28.06 7.00493 3.01304 9.94059 -17.7439 -3.40196 27.4456 0.0334835 1.31788 0.409372 
55 1 28.06 3.24151 6.0294 9.42621 12.7346 7.68383 -3.7298 -1.08932 1.35369 -0.040275 
59 1 28.06 5.37975 6.97092 8.9761 -5.88666 -2.53654 -0.568891 0.57137 1.39497 -0.374083 
63 1 28.06 9.27467 6.23286 8.35017 -8.29357 1.97634 -6.02983 1.32905 1.09541 2.0298 
35 1 28.06 2.44027 9.59046 9.2419 -9.6742 -3.5687 8.38556 -3.39965 -0.549324 1.03543 
50 1 28.06 10.735 9.40135 8.99907 3.78637 -4.52397 4.51312 1.51547 -0.774858 -0.017253 
54 1 28.06 1.95826 8.02547 0.366575 2.08534 5.46702 2.93033 0.534604 -2.6957 -2.3453 
58 1 28.06 4.52896 9.29276 8.17468 -0.102677 3.15828 -10.6136 3.03666 -1.92491 -0.146662 
62 1 28.06 5.09338 0.311324 9.61418 -16.9338 6.87382 6.92961 0.615994 0.52452 -1.03551 
ITEM: TIMESTEP
3000
ITEM: NUMBER OF ATOMS
64
ITEM: BOX BOUNDS pp pp pp
-1.9737592779733859e-05 1.0862019737592700e+01
-1.9737592779733859e-05 1.0862019737592700e+01
-1.9737592779733859e-05 1.0862019737592700e+01
ITEM: ATOMS id type mass x y z vx vy vz fx fy fz 
3 1 28.06 8.58132 3.11081 4.68718 2.94736 7.67749 -2.69836 -0.695735 1.32928 -0.844224 
1 1 28.06 8.80125 9.66266 3.13079 3.33273 12.9551 -9.78074 -1.57029 0.0383746 0.566468 
9 1 28.06 4.63766 10.0034 2.05938 4.11559 12.5395 0.397278 -0.193792 -2.3006 -3.18249 
13 1 28.06 8.49864 10.1371 10.3007 5.02533 -14.6308 4.45793 -1.25848 -2.66863 0.942558 
19 1 28.06 3.40314 3.34679 3.2341 1.39975 5.20111 -12.9008 -1.72664 1.79386 -0.695077 
5 1 28.06 8.73507 0.784557 1.6311 -3.83024 -3.55214 -11.9113 0.860311 -0.449758 0.168758 
16 1 28.06 2.6937 10.0569 3.63473 4.18314 -8.77714 7.25041 -2.06661 -2.41469 3.87094 
31 1 28.06 2.82787 3.49357 0.765388 -13.2293 -3.60821 -4.19672 -0.799569 -1.79499 -0.622355 
10 1 28.06 5.22579 5.47568 2.82168 18.9031 -6.22136 -6.63477 -3.91035 -1.01094 -0.830254 
25 1 28.06 0.543469 5.92828 0.354743 -2.37168 -5.07242 -22.1553 2.13268 -4.05732 2.59244 
20 1 28.06 3.15541 5.95839 1.06288 -1.74348 -8.68496 0.873337 -1.60858 2.20682 -0.193125 
14 1 28.06 6.22601 3.79087 1.24851 -6.25453 6.60152 0.578644 0.856495 -0.786993 -0.0301352 
27 1 28.06 10.4327 8.74327 4.71265 6.86978 9.68128 -3.29379 -0.74822 0.855339 -0.0624222 
6 1 28.06 2.44618 4.8478 5.2498 3.15255 -14.1484 15.9349 -1.47414 0.17293 -3.72196 
24 1 28.06 10.2806 0.463855 9.36977 -3.01978 -10.4057 -5.85194 1.8565 -0.0594306 0.254476 
54 1 28.06 2.20227 9.63524 0.908009 -4.83107 12.2478 12.0904 -1.98125 0.97633 2.73176 
29 1 28.06 2.79238 8.16043 10.3703 -10.0845 -7.16743 -2.2854 0.254918 -5.51297 -3.59973 
26 1 28.06 8.30076 4.75479 2.22752 -0.0736631 -11.6552 3.89423 1.90013 0.314779 0.723183 
30 1 28.06 5.83736 1.31923 5.24552 3.71861 -24.9516 -1.44553 -0.256186 0.836761 2.16901 
11 1 28.06 8.33026 0.236987 7.37708 -10.9038 -0.631568 -4.29217 -1.55836 -1.15684 -0.220906 
21 1 28.06 10.1361 5.3406 5.38153 -2.39778 -5.56575 0.427419 2.53726 -1.46254 1.82192 
32 1 28.06 8.68682 6.78647 0.671978 9.12029 -23.5826 -3.25982 -2.24949 -0.491505 0.60217 
36 1 28.06 4.43499 1.48785 0.361881 12.9342 -9.67735 7.58464 3.27696 2.25508 -0.390027 
37 1 28.06 8.21625 0.552856 4.96499 5.16571 14.2106 -0.87605 2.20789 -1.26822 1.34686 
34 1 28.06 3.85181 5.38127 6.85268 -26.5106 -3.78106 21.3189 1.18583 1.24021 2.08271 
7 1 28.06 3.41899 0.843482 5.59929 -37.8007 5.13752 -1.92103 0.0478451 -3.29854 1.47433 
41 1 28.06 5.87716 6.77665 6.62248 2.0615 -11.9014 -4.8796 0.72103 0.467822 -1.66261 
42 1 28.06 6.07946 3.81599 5.93832 -5.79007 3.06199 8.73493 0.51458 -0.731167 -0.431122 
2 1 28.06 0.131249 9.75049 7.59896 -13.2098 8.96104 -17.3852 1.782 0.93722 1.59567 
15 1 28.06 7.62645 2.01367 10.693 21.5749 11.9638 0.122312 -1.01351 1.70845 -1.17673 
53 1 28.06 8.89643 7.10474 5.81093 -1.9942 9.31951 -18.3643 -1.6577 2.25859 0.145757 
51 1 28.06 5.25072 3.51655 8.36975 1.89958 3.26236 3.06778 0.0072994 -1.36699 0.472426 
40 1 28.06 0.793655 8.08134 2.74878 3.5975 8.72612 6.89338 1.346 -2.11399 -0.00186965 
44 1 28.06 6.91367 1.93134 2.8545 6.82823 -14.4418 5.14583 -0.357839 0.722927 -0.944535 
57 1 28.06 0.431615 0.213953 5.78734 5.15054 0.964261 8.05157 -1.05743 -0.697912 -3.73627 
49 1 28.06 0.464055 5.44331 3.28894 -1.49507 9.4877 -7.42455 0.408641 0.925759 -2.05088 
18 1 28.06 2.43017 3.89659 8.46209 -20.2437 16.5984 13.7999 0.0461304 -0.00193004 2.28416 
23 1 28.06 3.41407 6.87831 3.88595 -21.7478 -0.121475 -15.6343 -2.88868 0.425646 -0.736065 
22 1 28.06 0.834716 5.80761 7.60994 -2.40835 -6.71192 -4.37617 -1.26789 -0.658153 -1.14901 
56 1 28.06 6.05 9.66131 3.89364 -8.38965 2.22043 -4.74544 1.74965 -2.12212 3.07393 
52 1 28.06 0.757839 2.64448 3.3206 9.39659 3.08907 -8.59103 4.14737 1.36104 -0.148055 
33 1 28.06 0.451143 0.31685 2.81282 -3.95836 -2.91025 -5.31967 0.768113 -2.58434 0.831482 
60 1 28.06 5.12617 9.83438 7.81077 -3.07933 -9.55597 21.7976 2.31013 -0.349317 0.760486 
4 1 28.06 2.99067 10.5392 8.02085 8.80254 -2.22945 -0.890011 -2.28453 -0.0934097 -0.994392 
38 1 28.06 8.96893 2.53864 8.63539 12.8778 10.2771 -11.412 0.692907 2.42906 -0.234323 
39 1 28.06 0.268023 2.81007 5.44333 -5.66511 -11.9932 4.78235 -2.80268 -0.619437 0.935216 
46 1 28.06 4.42328 1.2447 2.96687 -9.28215 5.60731 0.351518 0.991709 4.75478 -1.084 
62 1 28.06 6.28499 1.07656 8.96626 -1.56672 -4.61562 3.02694 -2.44957 -0.272445 -0.660446 
45 1 28.06 6.78595 5.85786 4.28478 -4.02847 10.2673 2.84815 3.42298 -0.58181 3.12661 
48 1 28.06 10.8204 7.93061 10.5795 23.3529 -13.918 -6.94613 -1.45961 3.4547 -1.16885 
43 1 28.06 2.82361 0.352121 10.3097 8.09861 19.1345 6.47208 -2.98562 2.72714 -1.63157 
47 1 28.06 2.21197 2.44857 6.59822 9.14336 19.2342 -1.18331 0.41114 1.31842 1.41467 
17 1 28.06 8.09394 4.55769 7.17228 -2.12981 14.463 3.60123 -0.856864 -0.043607 1.84526 
55 1 28.06 10.1496 2.90107 1.68098 3.83569 -6.6731 -5.66377 -3.96483 2.45357 0.341276 
8 1 28.06 10.9012 3.83582 9.7481 12.4806 -1.131 -11.319 1.2044 2.1616 -1.69681 
61 1 28.06 7.16929 8.23673 8.01831 3.21321 -0.0291072 1.83288 0.138081 0.907321 1.90952 
59 1 28.06 5.20384 7.67811 10.2394 4.55555 3.34891 4.56972 1.21121 0.294735 -0.367104 
12 1 28.06 0.676183 1.95164 0.092323 18.5882 0.385893 -14.74 2.67037 -1.60447 -1.03159 
63 1 28.06 7.29807 6.1153 9.58738 -8.1221 -1.32609 10.6926 0.157281 -0.113412 -1.57969 
35 1 28.06 6.69336 8.58085 1.24257 2.68216 -5.21112 14.0937 2.28935 0.130768 -1.44527 
50 1 28.06 4.95516 4.86035 10.4427 -0.974476 4.11451 12.9345 1.27668 0.992701 -2.18987 
58 1 28.06 4.14882 8.40124 5.81007 -1.83108 12.647 5.23519 -0.186594 0.952352 -0.918478 
28 1 28.06 1.95533 7.93573 7.82099 -15.6841 -2.94289 14.4908 2.60797 1.27918 0.396665 
64 1 28.06 9.67402 8.01644 8.19097 15.644 -5.56031 5.02523 -0.660805 -1.99506 0.951514 
ITEM: TIMESTEP
4000
ITEM: NUMBER OF ATOMS
64
ITEM: BOX BOUNDS pp pp pp
-2.7960372555924096e-05 1.0862027960372508e+01
-2.7960372555924096e-05 1.0862027960372508e+01
-2.7960372555924096e-05 1.0862027960372508e+01
ITEM: ATOMS id type mass x y z vx vy vz fx fy fz 
19 1 28.06 4.20479 2.8582 2.17424 19.5082 7.43173 -13.7932 -1.77882 2.66207 1.32814 
31 1 28.06 3.1431 3.07114 10.3142 -2.54398 0.711139 6.2578 0.758078 3.32492 -0.80113 
52 1 28.06 3.06749 8.28133 3.24544 -0.494077 -1.18702 1.79262 2.64175 -1.55888 -0.901263 
33 1 28.06 1.26247 6.46893 0.154856 -9.13577 4.34647 -13.1612 -0.426785 -1.41743 -0.109025 
36 1 28.06 6.81985 0.277507 5.63631 11.0667 -4.08249 4.80855 2.35858 0.827089 -2.43532 
44 1 28.06 7.43874 4.9723 0.664387 -4.88263 -7.72908 -12.5392 -2.2035 -2.90719 -1.83148 
46 1 28.06 4.73397 10.3811 5.51244 20.5352 -6.1676 2.66837 -1.6486 2.91831 1.22644 
5 1 28.06 7.96275 2.44286 1.00887 -12.6425 14.6001 13.3276 1.72459 2.44517 -1.0793 
55 1 28.06 1.55513 9.70854 9.73979 6.25675 -15.158 2.71612 2.2354 0.30449 0.470148 
25 1 28.06 7.08184 6.39624 9.39085 -6.74627 1.13789 -12.3638 -3.05374 0.48989 -2.23707 
20 1 28.06 4.16672 7.28871 10.6838 7.97209 -5.18364 -6.45573 5.55703 -1.50604 -1.92995 
49 1 28.06 10.4162 4.41523 4.16689 -12.7625 11.0655 -6.80336 -1.86273 -1.32507 -1.50844 
10 1 28.06 3.77946 2.58245 4.59363 4.19766 14.4631 15.188 -1.36736 0.0379229 -0.515903 
14 1 28.06 2.02011 5.37828 2.11247 -0.186841 8.1495 8.65745 1.44683 -2.09735 0.741598 
26 1 28.06 10.8119 1.77391 10.313 5.811 -5.4524 7.77343 0.701025 -1.73608 1.03607 
32 1 28.06 9.97942 5.72353 10.3852 3.14627 1.74065 16.3966 -0.266889 -0.333479 1.13608 
54 1 28.06 3.43578 10.4887 3.62625 -4.6058 -11.7293 -3.0511 -1.73274 3.10732 -0.907296 
40 1 28.06 8.2172 8.0418 2.41347 -16.0242 -5.76034 -0.431784 -1.84063 2.13325 -0.290126 
9 1 28.06 8.44898 8.17956 7.03128 -0.547477 -7.88052 7.75995 0.289185 0.0112096 2.09781 
35 1 28.06 10.2287 10.0747 9.96306 2.53899 -0.685133 0.0482084 -1.59619 -0.663942 2.20549 
1 1 28.06 9.82117 0.834374 1.89448 -0.913625 7.92323 7.51153 3.27759 4.2265 -2.04749 
7 1 28.06 7.77214 6.70304 4.94074 6.41066 -3.64881 3.7331 -1.96239 1.73115 0.0942412 
57 1 28.06 1.9262 4.65856 4.74841 -8.17875 -4.78123 -14.781 1.18865 -0.316335 -0.578657 
39 1 28.06 4.24573 10.4126 7.92281 12.7834 -6.52294 -7.92554 -2.72677 -2.80845 0.702674 
47 1 28.06 1.0123 1.93349 3.7801 13.3772 -10.6912 11.216 -1.00741 1.66986 2.00103 
30 1 28.06 1.59633 9.73573 7.27941 3.84482 4.97574 -2.17784 2.40334 -0.613621 1.0444 
3 1 28.06 4.53425 5.47385 4.10695 -12.1377 5.4348 6.00877 -0.346967 -0.702016 0.326431 
37 1 28.06 9.33292 10.0186 5.76456 13.1087 -10.3635 -6.06548 -1.73555 0.568222 4.21931 
6 1 28.06 2.04655 3.61787 6.95104 -4.35312 -20.9562 4.85358 1.54377 -1.84945 -2.17645 
34 1 28.06 4.60208 7.59491 8.21312 6.912 2.2789 12.5055 1.16706 0.707924 -1.03052 
23 1 28.06 5.45495 7.46597 2.63284 0.96471 4.31514 5.82713 1.00729 0.276746 0.7764 
41 1 28.06 7.25262 5.4199 7.02391 -12.0022 5.33802 3.49028 -1.3776 -0.508851 1.34839 
42 1 28.06 0.624696 1.23636 6.1671 -22.9601 -2.31734 -4.17588 1.23773 2.85168 1.34078 
45 1 28.06 6.90022 4.55669 3.86076 -8.7706 5.19264 -21.304 -0.136398 1.24805 -0.293799 
21 1 28.06 0.546115 6.40305 8.05415 2.41885 4.38296 -1.11115 2.11183 0.423458 1.71261 
16 1 28.06 0.259721 9.58651 1.77808 -3.5738 21.5711 -0.805712 2.13448 -0.501176 -1.49421 
56 1 28.06 10.2822 6.34116 5.9685 -4.52722 -5.38817 -6.9182 -0.852714 3.03377 -2.43027 
58 1 28.06 6.74637 9.38083 9.41719 15.2044 17.0115 2.11178 0.272185 -1.43479 -2.45914 
27 1 28.06 9.2621 10.0971 3.62278 -13.5567 19.1273 5.57804 -2.6469 -3.96109 -2.80831 
53 1 28.06 8.56073 5.81131 2.25694 -11.7791 -5.41915 -14.9798 3.68233 -1.35717 3.05052 
43 1 28.06 2.63854 8.21863 0.944686 15.864 -2.10009 -4.64284 -3.87562 4.17727 -0.0654192 
12 1 28.06 0.973464 9.8781 4.87357 -29.0648 -2.55924 -0.165661 1.29699 -0.492906 -1.88013 
51 1 28.06 4.59092 4.98703 6.76321 -2.16546 -19.3483 -1.81605 -0.893042 0.406126 0.76562 
62 1 28.06 6.55303 1.39071 10.3936 3.77364 -7.0418 4.44666 -0.601564 0.931144 0.370965 
24 1 28.06 5.87783 1.10172 8.16909 -13.1275 -1.98737 -4.67548 -0.0649143 1.97665 -0.740395 
11 1 28.06 1.25338 4.11375 8.98678 6.93751 16.2833 0.282363 -0.248245 1.00576 -0.00388127 
15 1 28.06 5.33009 4.33348 9.50171 5.86907 -4.8386 10.5969 -0.937897 -0.857751 -1.25554 
38 1 28.06 8.27636 2.72349 4.40903 -4.54327 15.1899 2.25614 0.0623148 -0.501912 0.00730326 
18 1 28.06 9.11266 1.53001 6.98278 5.09985 3.57099 3.62416 2.82838 3.17376 -4.38564 
22 1 28.06 1.22931 3.12013 0.965307 5.63263 -10.7663 -18.5751 0.20205 2.19387 2.10992 
8 1 28.06 9.38394 3.38215 9.62841 -4.25931 -9.18775 4.68725 -1.63475 1.03884 -1.33183 
63 1 28.06 4.75903 5.07424 1.10975 8.17564 12.4031 -15.1386 0.0425014 1.45098 0.74764 
50 1 28.06 5.70134 9.31448 0.61701 10.2631 14.0281 0.44107 -0.909329 -0.775477 1.82036 
17 1 28.06 6.89286 2.90124 6.71959 -13.7123 -1.00458 9.69996 -0.936907 1.22373 -1.20009 
29 1 28.06 5.12784 1.04403 1.35227 -0.976293 9.61224 4.98429 -0.0557898 -4.9137 -0.140663 
4 1 28.06 5.16852 8.33476 5.4365 30.3096 1.29014 -10.691 0.700503 -6.92347 -0.673584 
48 1 28.06 2.06531 1.03593 1.88376 16.5791 -7.18669 -15.5513 0.491708 -2.81143 -0.200026 
28 1 28.06 9.53103 4.50549 7.02816 -13.8426 4.40136 -0.887479 -1.42038 -5.15506 1.77151 
60 1 28.06 3.01597 0.877844 10.2044 -15.56 2.12554 12.4657 0.835018 -4.00361 -0.531855 
61 1 28.06 8.91377 7.77388 10.0705 -16.1525 -4.25786 4.67064 -0.117127 3.07826 -0.57271 
59 1 28.06 7.2951 0.651359 2.9019 20.7786 -3.10524 4.87084 -2.31301 1.71601 2.66027 
13 1 28.06 8.54531 0.613602 8.71099 1.26308 -14.1943 4.12363 -0.392274 -3.09371 4.77266 
2 1 28.06 1.34559 7.20519 4.40775 -7.67503 -11.125 11.3951 0.058907 -0.451914 1.61214 
64 1 28.06 2.44885 7.38589 6.87102 7.80066 -0.294808 -7.7876 0.714425 0.207925 -0.650067 
ITEM: TIMESTEP
5000
ITEM: NUMBER OF ATOMS
64
ITEM: BOX BOUNDS pp pp pp
-3.4790961076502924e-05 1.0862034790961022e+01
-3.4790961076502924e-05 1.0862034790961022e+01
-3.4790961076502924e-05 1.0862034790961022e+01
ITEM: ATOMS id type mass x y z vx vy vz fx fy fz 
22 1 28.06 0.908415 5.68478 10.2793 -26.8567 2.78229 2.39049 -1.36272 1.86047 2.81982 
48 1 28.06 7.05769 0.658517 10.0755 -8.55191 12.9937 12.9108 -0.628759 -0.0364212 -0.916748 
19 1 28.06 5.90863 10.8227 3.85966 -8.01196 11.847 -8.70415 0.329534 -2.01022 0.302584 
29 1 28.06 2.66938 9.95455 1.74582 -2.85276 -13.6181 21.9841 -0.776592 -1.47711 -0.929605 
5 1 28.06 10.6125 0.825692 -0.307382 13.2436 7.4579 -7.55227 0.519639 3.09563 0.101892 
1 1 28.06 2.06501 2.24789 0.0799789 -5.72139 10.7197 -1.46744 -2.51189 0.190839 -0.233147 
59 1 28.06 7.02069 3.54134 3.84215 -3.34907 13.1185 -20.7524 0.156937 -0.0755703 1.69377 
14 1 28.06 4.76124 3.39375 0.278803 4.30593 15.5977 1.6048 0.135295 0.627718 -1.10208 
45 1 28.06 8.43473 4.82791 9.31674 14.7165 -8.61486 -4.54131 -0.379987 2.31223 0.777321 
63 1 28.06 2.77447 7.11197 1.10426 -8.89876 8.23505 11.1552 -0.348007 0.0556572 -1.23274 
44 1 28.06 5.18936 9.76591 1.80155 12.7561 -2.7645 12.9374 0.327667 -1.20499 0.513291 
53 1 28.06 5.18934 5.17051 4.56806 -17.473 12.7736 -0.594608 0.424698 0.540601 -1.48571 
52 1 28.06 2.52251 9.05979 9.64201 -8.12254 5.90724 -6.75395 -1.31095 -0.318773 0.150831 
54 1 28.06 3.7165 9.86126 7.16279 -11.5681 -0.493859 -5.57833 -0.998549 -0.52892 0.392005 
16 1 28.06 0.321935 3.44091 2.48109 8.34422 -8.14873 1.87301 -2.67035 0.976847 -0.844736 
43 1 28.06 1.70469 6.80714 8.2223 13.2288 -1.56392 -3.65219 0.311202 3.35279 -1.10781 
23 1 28.06 4.82969 7.24482 2.54961 -2.74015 -6.01736 8.16799 -1.47145 -0.243524 2.28155 
50 1 28.06 8.15992 7.47673 3.2079 -1.034 -8.37123 -4.4491 0.275278 0.727369 1.31154 
40 1 28.06 6.80503 6.97032 1.40658 -5.20695 -26.9123 -0.821868 1.36408 -2.80297 -1.72688 
27 1 28.06 10.9107 8.3461 7.48129 6.8718 -19.3715 5.22488 -0.386271 2.38882 0.157901 
47 1 28.06 2.69934 0.947906 3.49659 -3.18484 1.62161 -3.43011 0.434167 -1.1788 -1.7053 
6 1 28.06 0.894714 -0.0664844 7.95653 10.4358 -9.32234 0.889098 0.960591 -0.936653 -1.39073 
42 1 28.06 0.358855 0.956074 2.566 10.6889 2.81215 -3.74399 -0.196582 -0.426035 -1.12431 
36 1 28.06 5.36 0.668508 7.76518 -9.20243 23.7115 -11.7842 1.34071 -0.118342 1.05583 
10 1 28.06 4.55086 1.55855 4.80098 -14.148 -11.1701 11.3241 2.21641 1.38828 -0.316111 
17 1 28.06 7.33525 1.88939 6.0338 3.35307 11.8508 -11.1361 3.73411 -0.906132 -2.86862 
38 1 28.06 5.94984 3.24304 6.94372 -15.0506 6.76817 -5.03513 -2.16891 3.99402 2.33518 
18 1 28.06 8.28646 -0.0605515 4.64001 11.4921 -16.7263 -0.0994894 0.515746 0.842547 -1.96269 
57 1 28.06 2.48996 4.42208 1.41602 -9.98504 -7.13427 -10.5966 0.0891123 1.01381 -2.03472 
2 1 28.06 1.63792 2.80169 4.98889 1.4796 -18.4778 5.53144 -2.10319 1.68493 1.77539 
3 1 28.06 3.19727 3.95358 3.53143 -5.51555 -7.70391 0.332568 2.10156 1.52911 2.11612 
41 1 28.06 3.65907 5.08155 6.70277 -9.91286 2.60074 2.17115 -0.573441 -0.543999 -0.161098 
51 1 28.06 10.6785 0.990181 5.0677 0.506661 -14.0753 -5.56334 -1.29784 -0.131879 1.82469 
49 1 28.06 10.4353 6.08962 2.8193 14.7288 4.23858 -1.63107 -0.691649 -0.473701 -1.29939 
7 1 28.06 6.63668 7.73559 5.35741 -1.33944 7.33258 -7.93462 0.636163 -1.51354 -2.06787 
56 1 28.06 9.64858 3.72213 4.70329 10.9754 -16.7878 8.22462 -1.3338 -1.50573 -0.281033 
28 1 28.06 6.57478 5.90249 6.90033 3.25151 4.86883 -2.49528 0.644206 0.433815 2.38685 
12 1 28.06 10.2031 8.36016 4.87133 -6.32833 -3.19918 6.05859 -1.11762 0.700913 4.42855 
64 1 28.06 3.26308 2.37405 6.8607 1.01145 -12.661 -2.21929 -0.59343 1.69182 1.65898 
46 1 28.06 7.88171 9.41476 6.29663 10.6037 -7.9722 -0.280217 2.40635 -0.510294 2.40062 
4 1 28.06 4.74752 9.04258 5.2068 -8.69105 -0.28754 9.37248 0.953827 -0.307821 -2.19366 
37 1 28.06 9.95712 5.8799 5.73094 -3.55569 10.4322 4.27078 3.48921 -1.14963 -5.74277 
31 1 28.06 9.02426 8.42033 9.52508 -6.63552 11.7063 9.87866 0.984517 0.010646 1.19122 
26 1 28.06 1.98068 3.92611 8.98017 8.10236 7.34319 21.9089 -0.152467 -5.86795 -0.629667 
60 1 28.06 3.21668 0.934957 9.32432 11.9912 11.0743 12.2429 -0.67467 -0.974656 -0.273254 
62 1 28.06 6.85136 3.94849 1.39068 4.72922 4.92957 -1.81494 0.911913 2.47258 0.955412 
24 1 28.06 8.48693 1.07482 1.20513 11.2723 11.9526 -11.1923 -1.27604 -0.383513 -1.97504 
8 1 28.06 6.5916 8.74256 10.5515 -1.59975 14.7475 7.26971 0.977524 0.39731 0.0406804 
13 1 28.06 9.1989 10.8848 8.59963 -2.90938 -4.73979 -1.71744 -1.44462 -0.826023 -0.645634 
33 1 28.06 4.81038 0.77874 0.395727 22.624 -1.02748 -14.7204 0.619342 1.73025 -1.72149 
21 1 28.06 9.27718 6.32207 7.64719 -3.45384 -6.03892 -1.0571 -3.71012 1.04002 3.55616 
11 1 28.06 9.17741 3.25701 0.851259 -13.8127 -0.542333 11.7639 1.18086 1.88636 0.0596059 
25 1 28.06 5.57311 7.06841 9.06041 8.31778 5.0365 8.73221 1.849 0.408662 -1.74727 
20 1 28.06 10.2144 3.562 9.12645 9.57543 16.5623 -3.77107 1.29825 -2.94302 0.310839 
15 1 28.06 3.75862 5.72371 9.35666 -1.39252 -13.3404 -16.3903 2.71548 -0.852318 2.36916 
32 1 28.06 0.447349 8.57518 2.84225 -10.6079 -7.84097 1.77826 2.33697 -0.0807689 -2.51118 
55 1 28.06 0.29537 9.57293 10.9415 10.2977 -5.5172 9.94068 0.608745 -2.66731 0.933023 
30 1 28.06 2.64896 7.99986 4.10057 -0.949807 -17.2017 5.52065 -0.0574293 0.0913562 -0.530521 
39 1 28.06 6.78956 3.24753 9.28043 8.11037 -4.84006 -9.32499 -2.30098 -2.18252 0.349507 
34 1 28.06 1.83013 5.82965 5.05688 -3.58097 5.85435 -11.9806 -0.718015 0.00191904 0.531305 
58 1 28.06 9.48007 2.07073 7.30081 4.14619 13.6833 4.11749 0.444497 -0.237939 -1.84636 
9 1 28.06 9.60276 6.32804 0.166308 -20.0226 -2.34112 -18.2826 -1.58202 0.0273508 1.09949 
35 1 28.06 2.03999 10.4006 5.23142 6.32167 5.13342 -5.01396 -2.41393 -1.3274 1.72059 
61 1 28.06 9.14206 9.93403 2.33325 4.78393 -0.869117 6.50588 -0.0413085 -0.730187 1.00647 
ITEM: TIMESTEP
6000
ITEM: NUMBER OF ATOMS
64
ITEM: BOX BOUNDS pp pp pp
-4.0192848976161599e-05 1.0862040192848927e+01
-4.0192848976161599e-05 1.0862040192848927e+01
-4.0192848976161599e-05 1.0862040192848927e+01
ITEM: ATOMS id type mass x y z vx vy vz fx fy fz 
1 1 28.06 9.31562 1.08765 5.60832 9.49818 3.4496 7.74113 0.76363 -2.37814 -0.949781 
16 1 28.06 0.165196 2.43979 2.03787 4.4587 -10.7028 0.3036 0.851665 1.23502 -1.71007 